/*--------------------------------*- C++ -*----------------------------------*\
  =========                 |
  \\      /  F ield         | OpenFOAM: The Open Source CFD Toolbox
   \\    /   O peration     | Website:  https://openfoam.org
    \\  /    A nd           | Version:  8
     \\/     M anipulation  |
\*---------------------------------------------------------------------------*/
FoamFile
{
    version     2.0;
    format      ascii;
    class       volScalarField;
    location    "350";
    object      p;
}
// * * * * * * * * * * * * * * * * * * * * * * * * * * * * * * * * * * * * * //

dimensions      [0 2 -2 0 0 0 0];

internalField   nonuniform List<scalar> 
17000
(
-0.13864176
-0.17929201
-0.22189949
-0.26445303
-0.3060402
-0.34647016
-0.38549299
-0.42273287
-0.45796519
-0.49088444
-0.52130806
-0.54911566
-0.57424936
-0.59657856
-0.61605756
-0.63286086
-0.6469451
-0.65831581
-0.66724342
-0.67380748
-0.67837673
-0.6810209
-0.68144281
-0.67973135
-0.67615479
-0.67140172
-0.66572726
-0.6592281
-0.65208103
-0.64447022
-0.63645598
-0.62825207
-0.62001459
-0.61191686
-0.6040438
-0.59641158
-0.58908588
-0.58215249
-0.57565585
-0.56961504
-0.56404556
-0.5589722
-0.55434575
-0.55008209
-0.5461317
-0.54244799
-0.53893638
-0.53551063
-0.53212307
-0.52876353
-0.12319667
-0.16114358
-0.20015505
-0.24065097
-0.28090614
-0.32053212
-0.35915946
-0.39636865
-0.43182714
-0.46520448
-0.49629119
-0.52506439
-0.55126202
-0.57480339
-0.59556359
-0.61361769
-0.62888216
-0.641394
-0.65124197
-0.65850846
-0.66336629
-0.66617032
-0.66701942
-0.666013
-0.66338579
-0.65937005
-0.65410233
-0.64789863
-0.64102516
-0.63363452
-0.62592188
-0.61805147
-0.61015532
-0.60237665
-0.59485479
-0.58764358
-0.58080443
-0.57436455
-0.56835793
-0.56280477
-0.55771352
-0.5530653
-0.54881765
-0.54493956
-0.54139351
-0.53809767
-0.53497319
-0.53197075
-0.52901507
-0.52610215
-0.080221524
-0.11712757
-0.15470096
-0.19367968
-0.23337347
-0.27305484
-0.31200026
-0.34998289
-0.3868543
-0.42224636
-0.45603099
-0.48779345
-0.51702693
-0.5434725
-0.56713646
-0.58786406
-0.60567109
-0.62051969
-0.63240957
-0.64154633
-0.64804469
-0.65205174
-0.65399306
-0.65399981
-0.65219491
-0.64881285
-0.64407716
-0.63832234
-0.63184014
-0.62478004
-0.61738845
-0.6098526
-0.60227395
-0.59480975
-0.58760209
-0.58070918
-0.57421929
-0.56814488
-0.56253868
-0.55737123
-0.55266856
-0.54840782
-0.54458449
-0.54114685
-0.53807493
-0.53530749
-0.53280959
-0.53052575
-0.5282284
-0.52576567
-0.038797352
-0.074731532
-0.11104066
-0.14808981
-0.18597497
-0.22366108
-0.26097781
-0.29830529
-0.33536403
-0.3716231
-0.40685338
-0.44044253
-0.4720104
-0.50123134
-0.52793261
-0.55180512
-0.57279199
-0.59071799
-0.60556788
-0.61751251
-0.6265737
-0.63290618
-0.6368025
-0.63843202
-0.63800626
-0.63583691
-0.63214818
-0.62725436
-0.62149161
-0.61506475
-0.60821465
-0.60115306
-0.59401631
-0.58697116
-0.5801896
-0.57370096
-0.56758601
-0.56189379
-0.55666493
-0.55191192
-0.54764185
-0.54383861
-0.54050576
-0.53760856
-0.53512539
-0.53301593
-0.53124903
-0.52977027
-0.52815485
-0.5261257
-0.0044774801
-0.038737498
-0.072977262
-0.10723916
-0.14231511
-0.1779462
-0.21403683
-0.25053276
-0.28704603
-0.32307926
-0.35833592
-0.39239105
-0.42485374
-0.45548269
-0.48401477
-0.51018169
-0.53377357
-0.55449024
-0.57232276
-0.58711311
-0.59895497
-0.6079001
-0.61417147
-0.61799359
-0.61951563
-0.61908287
-0.61692091
-0.61338704
-0.60876347
-0.60333683
-0.59736501
-0.59100956
-0.58459665
-0.57817687
-0.57197744
-0.56602311
-0.56042713
-0.55526578
-0.55053949
-0.5463007
-0.5425528
-0.53931695
-0.53658159
-0.53432288
-0.53250538
-0.53110491
-0.5300793
-0.52938858
-0.52848349
-0.52679209
0.021217363
-0.010618752
-0.04219247
-0.073303858
-0.10554208
-0.13894941
-0.1730736
-0.20763722
-0.24239492
-0.27726388
-0.31198616
-0.34619354
-0.37942521
-0.41108862
-0.44075309
-0.46824715
-0.49347684
-0.51617317
-0.53623406
-0.55342655
-0.56775693
-0.57921709
-0.58789158
-0.59400897
-0.59764902
-0.59919438
-0.59884122
-0.59694352
-0.59374468
-0.58960224
-0.58478001
-0.57945414
-0.57395889
-0.56835689
-0.56288622
-0.55763741
-0.55270364
-0.5481843
-0.5440917
-0.54047544
-0.5373533
-0.53475091
-0.53266904
-0.53107756
-0.529943
-0.52923596
-0.52889668
-0.52888428
-0.5285598
-0.52696788
0.040091707
0.010688237
-0.018470698
-0.047054271
-0.076740848
-0.10777383
-0.13967968
-0.1721515
-0.20505764
-0.23828723
-0.27163643
-0.30474379
-0.33729513
-0.36897359
-0.39938638
-0.42811684
-0.45459635
-0.47859122
-0.50011067
-0.51904067
-0.53531178
-0.54883283
-0.55961647
-0.56781462
-0.57352832
-0.57704714
-0.57852855
-0.57833681
-0.57672955
-0.57401997
-0.5704973
-0.5663795
-0.56194635
-0.55733796
-0.55277444
-0.5483629
-0.54420417
-0.54040391
-0.53701445
-0.53409431
-0.53166518
-0.52975045
-0.52832044
-0.5273696
-0.52686183
-0.52673767
-0.52694012
-0.52743703
-0.52749511
-0.52583291
0.054228336
0.027216141
0.00042339543
-0.025839792
-0.05325868
-0.082096022
-0.11193464
-0.14251589
-0.17371365
-0.20537003
-0.23728249
-0.26914212
-0.30064191
-0.33159428
-0.36159513
-0.39034473
-0.41750992
-0.44275307
-0.46555512
-0.48572238
-0.5033315
-0.51836437
-0.53080909
-0.54075698
-0.54828021
-0.55355698
-0.55676109
-0.55822969
-0.55818523
-0.55693017
-0.55475508
-0.55189824
-0.54860345
-0.54506765
-0.54148824
-0.53798142
-0.53469269
-0.53168841
-0.52906818
-0.52686614
-0.52511049
-0.52382577
-0.52301516
-0.52264758
-0.52266595
-0.52300424
-0.52360406
-0.52442417
-0.52477426
-0.52298615
0.064832361
0.040012631
0.01541217
-0.0087054271
-0.034048762
-0.0608772
-0.088796723
-0.11756465
-0.14704998
-0.17714088
-0.20765045
-0.23831784
-0.26883577
-0.29896232
-0.32833765
-0.35665408
-0.38369937
-0.40913312
-0.43262087
-0.45399125
-0.47283893
-0.48899353
-0.50259486
-0.51389214
-0.52293845
-0.52968984
-0.53437223
-0.53730441
-0.53869149
-0.53882415
-0.53793603
-0.53630343
-0.53413576
-0.53167966
-0.52907099
-0.52649251
-0.52405628
-0.52184712
-0.51997485
-0.51845262
-0.51733859
-0.51663644
-0.51634736
-0.51640581
-0.51679619
-0.51744919
-0.51829484
-0.51933597
-0.51994486
-0.5177679
0.072793802
0.049941561
0.027327025
0.0051537004
-0.018292082
-0.043261763
-0.069389868
-0.09644176
-0.12432752
-0.15292565
-0.18205513
-0.21148149
-0.24095091
-0.27021118
-0.29893259
-0.32678809
-0.35353733
-0.37881468
-0.40243384
-0.4241571
-0.44373329
-0.46114681
-0.47569042
-0.48789194
-0.49822899
-0.50615921
-0.51205381
-0.51623133
-0.51886317
-0.52018962
-0.52046722
-0.51994118
-0.51883567
-0.51736308
-0.51567612
-0.51396747
-0.51231342
-0.51084059
-0.50962407
-0.50869684
-0.50810137
-0.50784289
-0.50790282
-0.50823352
-0.50880201
-0.50954481
-0.51037808
-0.51130139
-0.51181935
-0.5088756
0.07875553
0.057665224
0.036836976
0.016416587
-0.0053023679
-0.028574195
-0.053039381
-0.078488041
-0.10485547
-0.13202872
-0.15983981
-0.18806828
-0.21647814
-0.24481139
-0.2727927
-0.30011609
-0.32647714
-0.35156653
-0.37514543
-0.39694747
-0.41682434
-0.43465714
-0.45011851
-0.46343111
-0.47455565
-0.48336972
-0.49027029
-0.49548819
-0.49915147
-0.50149137
-0.50276662
-0.50319589
-0.5030161
-0.50239529
-0.50153027
-0.50056256
-0.49959343
-0.49872861
-0.49804229
-0.49756767
-0.49732076
-0.49731558
-0.49751465
-0.49789038
-0.49836195
-0.49887885
-0.49933748
-0.49970223
-0.49959135
-0.49569906
0.083186556
0.063672749
0.044447215
0.025606398
0.0054536939
-0.016267489
-0.039198478
-0.063156378
-0.088096679
-0.11391608
-0.14046288
-0.16752734
-0.19489458
-0.22231815
-0.24952635
-0.27623152
-0.30213268
-0.32693839
-0.35037788
-0.37220948
-0.39223451
-0.4102686
-0.4262187
-0.44011843
-0.45196115
-0.46158702
-0.4693257
-0.47544287
-0.4799196
-0.48307068
-0.48516328
-0.48639061
-0.48697044
-0.4870677
-0.48687038
-0.48650203
-0.48607448
-0.4856672
-0.48534699
-0.4851492
-0.48506355
-0.48510535
-0.48521706
-0.48536262
-0.48546463
-0.4854328
-0.48517623
-0.48462775
-0.48352139
-0.47853626
0.086430621
0.068330111
0.050545369
0.033127482
0.014394613
-0.0059038514
-0.027422536
-0.050001094
-0.073605111
-0.098151005
-0.12348924
-0.14943134
-0.17578127
-0.20229909
-0.22872897
-0.25479023
-0.28018649
-0.30463583
-0.3278598
-0.34960811
-0.36968064
-0.38789651
-0.40415325
-0.41837395
-0.4306456
-0.44092919
-0.4492811
-0.45611811
-0.46141377
-0.46520042
-0.46791109
-0.46976886
-0.47095542
-0.47162537
-0.47194344
-0.47202058
-0.47197223
-0.47186166
-0.47174303
-0.47163588
-0.47151774
-0.47138777
-0.47118363
-0.47085981
-0.47032372
-0.46947095
-0.46822268
-0.46648435
-0.464062
-0.45790734
0.088750824
0.071924388
0.055433662
0.039296361
0.021850772
0.0028550704
-0.017362003
-0.038663431
-0.06102284
-0.084364932
-0.10855925
-0.13343249
-0.15879084
-0.18441835
-0.21007105
-0.23546819
-0.260335
-0.2843869
-0.30733789
-0.32893102
-0.34897162
-0.36727584
-0.38372798
-0.39822555
-0.41083355
-0.42153531
-0.4303888
-0.43761625
-0.44347539
-0.44799802
-0.45122786
-0.4535367
-0.45517541
-0.45627245
-0.45695767
-0.45733927
-0.4575134
-0.45754331
-0.45745619
-0.45726375
-0.45693849
-0.45645029
-0.45573726
-0.45472666
-0.45333846
-0.45145482
-0.44899767
-0.44585508
-0.44187564
-0.43450127
0.09035416
0.074672284
0.059348158
0.044364813
0.028088164
0.010283537
-0.0087377396
-0.028851967
-0.050048403
-0.072263256
-0.095374326
-0.11922102
-0.1436319
-0.16839213
-0.1932686
-0.21800321
-0.24231642
-0.26593456
-0.28858057
-0.30997511
-0.32992138
-0.34823625
-0.36479018
-0.37948534
-0.39234625
-0.40335741
-0.41261666
-0.42020093
-0.4263571
-0.43133011
-0.43509006
-0.43778717
-0.43977085
-0.44116659
-0.44208411
-0.44263479
-0.44289972
-0.44292493
-0.44273159
-0.44230735
-0.44161816
-0.44061981
-0.43923438
-0.43738496
-0.43498529
-0.43192469
-0.42810928
-0.42344487
-0.4178021
-0.40922198
0.091393378
0.076738064
0.062467913
0.048530379
0.033317314
0.016604229
-0.0013163072
-0.020331092
-0.040444451
-0.061596053
-0.083682717
-0.10655478
-0.1300498
-0.15397198
-0.17809248
-0.20216342
-0.22591731
-0.2490844
-0.27137956
-0.29254588
-0.31235707
-0.33062816
-0.3472203
-0.36204292
-0.3750714
-0.38631348
-0.39584164
-0.40375545
-0.4102429
-0.41544967
-0.41945862
-0.42248382
-0.42478906
-0.42641848
-0.42746333
-0.42805989
-0.42829424
-0.42819832
-0.42777248
-0.42700079
-0.42583192
-0.42420745
-0.42204181
-0.41925333
-0.41574988
-0.41142854
-0.40620765
-0.40000101
-0.3927084
-0.38298271
0.091988243
0.078258405
0.064940333
0.051952213
0.037706811
0.021993689
0.0050895424
-0.012905489
-0.032003259
-0.052161579
-0.073280196
-0.095225727
-0.1178434
-0.14095402
-0.16433715
-0.1877546
-0.21094597
-0.23364637
-0.25557659
-0.27647853
-0.296115
-0.31429756
-0.33088386
-0.34577039
-0.35891442
-0.37032688
-0.38005907
-0.38820986
-0.39492391
-0.40034322
-0.40457373
-0.40780646
-0.41024717
-0.41197791
-0.41311043
-0.4137208
-0.41384067
-0.41351926
-0.41276675
-0.41155333
-0.40981673
-0.40749008
-0.40448407
-0.40070992
-0.39607087
-0.39048629
-0.38387866
-0.37618254
-0.36732637
-0.35656363
0.092230651
0.079334529
0.066876164
0.054754226
0.041397169
0.02659972
0.010634936
-0.0064099413
-0.024563779
-0.0437866
-0.063990928
-0.085054582
-0.10683497
-0.1291626
-0.15183259
-0.17460565
-0.19723776
-0.21946445
-0.2410137
-0.26162917
-0.2810586
-0.29911803
-0.31565922
-0.33056689
-0.34378188
-0.35530825
-0.36518868
-0.37350767
-0.38038898
-0.38596897
-0.39036415
-0.39374237
-0.39625091
-0.39800368
-0.39909845
-0.39960019
-0.39955274
-0.39898185
-0.39785764
-0.39613694
-0.39377848
-0.39070834
-0.38683422
-0.38206762
-0.3763191
-0.36951457
-0.3615981
-0.35253372
-0.34226277
-0.33058889
0.092197592
0.080054341
0.068373305
0.057035943
0.044492147
0.030543337
0.015451913
-0.00071391145
-0.017982666
-0.036325631
-0.055666955
-0.075894334
-0.09687677
-0.11845625
-0.14042827
-0.16257659
-0.18465419
-0.20640539
-0.22756124
-0.24787103
-0.26707628
-0.28498671
-0.3014438
-0.31633114
-0.32957722
-0.34117626
-0.35115786
-0.35959483
-0.36659584
-0.37229032
-0.37679299
-0.38024963
-0.38278361
-0.38451501
-0.38551952
-0.38585168
-0.38555598
-0.38463806
-0.3830774
-0.38083333
-0.37784748
-0.37403424
-0.36930006
-0.36357137
-0.35677565
-0.34884592
-0.33974359
-0.32946607
-0.31797283
-0.30553909
0.091929363
0.080487618
0.069518159
0.058889492
0.047090478
0.033925298
0.019641901
0.0042955546
-0.012145487
-0.029661823
-0.048187507
-0.067622907
-0.087844037
-0.10870029
-0.13000383
-0.15153952
-0.17307363
-0.19434991
-0.21510927
-0.23509602
-0.25406014
-0.27179473
-0.2881387
-0.30297519
-0.31621947
-0.32785316
-0.33789821
-0.34641412
-0.35349504
-0.3592615
-0.36382048
-0.36730389
-0.36982641
-0.37149089
-0.37236292
-0.37249818
-0.37191835
-0.37062023
-0.36858968
-0.36579259
-0.36214814
-0.35758997
-0.3520386
-0.34541948
-0.33766776
-0.32872813
-0.31857945
-0.30725973
-0.29474793
-0.28175273
0.091456085
0.080674338
0.070364592
0.060383387
0.049271182
0.036833669
0.023299547
0.0087194113
-0.0069462699
-0.023688834
-0.04144621
-0.060129108
-0.079625228
-0.099790982
-0.12044755
-0.14139133
-0.16238853
-0.18319352
-0.20355242
-0.22320868
-0.24191281
-0.25945313
-0.27566919
-0.29042529
-0.30363586
-0.31527195
-0.32534536
-0.33390563
-0.34103617
-0.34683606
-0.35141493
-0.35489247
-0.3573653
-0.35892432
-0.35963593
-0.3595398
-0.35865176
-0.35696225
-0.35445517
-0.35108924
-0.34679881
-0.34151649
-0.33518693
-0.32774355
-0.31912758
-0.30930177
-0.29826545
-0.28608382
-0.27275982
-0.2593806
0.090901479
0.080702944
0.070961752
0.061548584
0.051073941
0.03932138
0.026490274
0.012627046
-0.0023137054
-0.018324939
-0.035357353
-0.053327663
-0.072130407
-0.091634198
-0.11167038
-0.13203707
-0.15250825
-0.17285238
-0.19280519
-0.21212331
-0.23055926
-0.24789191
-0.26395451
-0.2786077
-0.29176164
-0.30337279
-0.31344654
-0.32202279
-0.32916854
-0.3349744
-0.3395467
-0.34298186
-0.34537599
-0.34680721
-0.34733028
-0.34698023
-0.34576712
-0.34367776
-0.34069178
-0.33676973
-0.33185039
-0.32588244
-0.31882384
-0.3106252
-0.30124633
-0.29066298
-0.27889396
-0.26601223
-0.25201293
-0.2383235
0.090401361
0.080787595
0.07147907
0.062497236
0.052576021
0.041455381
0.029283752
0.016092701
0.00183542
-0.013492134
-0.029838946
-0.047132518
-0.065277025
-0.084149767
-0.10358247
-0.12339156
-0.14335421
-0.16323812
-0.18278907
-0.20176814
-0.21992515
-0.23703977
-0.25293025
-0.26745995
-0.28053169
-0.29209549
-0.30214199
-0.31070191
-0.31783696
-0.32362643
-0.32816053
-0.33153151
-0.3338215
-0.33510309
-0.33541606
-0.33479487
-0.33324549
-0.33075372
-0.327293
-0.3228292
-0.31730366
-0.31068503
-0.30296158
-0.29409254
-0.28404684
-0.27282244
-0.26045376
-0.24699496
-0.23242149
-0.21855738
0.089462675
0.080846747
0.072026041
0.063388407
0.053931083
0.043379601
0.031822843
0.019264617
0.0056396314
-0.0090494651
-0.024759871
-0.041418406
-0.05894239
-0.07721272
-0.096076241
-0.11535191
-0.13482436
-0.15426873
-0.17343071
-0.19206955
-0.20994713
-0.22683177
-0.24254061
-0.25693276
-0.26990559
-0.28139854
-0.29139652
-0.29992149
-0.3070238
-0.31277328
-0.31724897
-0.32053441
-0.3227058
-0.32382112
-0.32391618
-0.32301707
-0.32112671
-0.31823669
-0.3143108
-0.30932649
-0.3032136
-0.29598643
-0.28766157
-0.27819274
-0.26755923
-0.25578204
-0.24291393
-0.22898604
-0.21400542
-0.19996434
0.086948566
0.079739445
0.071549115
0.063219502
0.05418447
0.044177581
0.033250756
0.021356328
0.0084009367
-0.0056260378
-0.020670643
-0.036665882
-0.053533429
-0.071166569
-0.089421656
-0.1081251
-0.1270733
-0.14604068
-0.16478294
-0.18306139
-0.20063563
-0.21727908
-0.23280289
-0.2470593
-0.25993624
-0.27136731
-0.28132795
-0.28982966
-0.29691268
-0.30263656
-0.3070732
-0.31029411
-0.31236744
-0.31334088
-0.31324775
-0.31211011
-0.30992659
-0.30668483
-0.30235398
-0.29691265
-0.29027885
-0.28252997
-0.27370115
-0.26369872
-0.25252295
-0.24022198
-0.22686572
-0.21245674
-0.19713962
-0.18248173
0.090042387
0.095053905
0.10036561
0.10664659
0.11398081
0.12176763
0.12968861
0.13813863
0.14740579
0.15754375
0.1685986
0.18059617
0.19357202
0.20753928
0.22245744
0.23826711
0.25479304
0.27175808
0.28880458
0.30541282
0.32095
0.33469686
0.34589551
0.35385788
0.3580596
0.35822261
0.35435166
0.34674969
0.335958
0.32266894
0.30763469
0.29159923
0.27515513
0.2587859
0.24289578
0.22773161
0.21342269
0.20005151
0.18765911
0.17622087
0.16571154
0.15608184
0.14726653
0.1392396
0.1317913
0.12450459
0.11734737
0.11105922
0.10586408
0.10104392
0.093193349
0.098749133
0.10468993
0.11118485
0.11832583
0.12598502
0.13413117
0.14294204
0.15253444
0.16297189
0.17432385
0.1866269
0.19991214
0.21419062
0.22941268
0.24551376
0.2623221
0.27954596
0.29682395
0.31362934
0.32932557
0.34319517
0.3544818
0.3624945
0.36671445
0.36686731
0.36295958
0.35528949
0.34439808
0.33097688
0.31577976
0.29955039
0.28288007
0.2662656
0.25010986
0.23467061
0.220078
0.20642078
0.19374435
0.18202274
0.17123861
0.16132911
0.15220379
0.14384239
0.13617108
0.12898011
0.12212128
0.1157743
0.10997815
0.10446715
0.094645496
0.10027696
0.10639707
0.11303025
0.12022736
0.12798779
0.13639699
0.14555138
0.15549537
0.16630422
0.17804922
0.19076149
0.20446919
0.21918062
0.23484511
0.25139309
0.26863875
0.28628755
0.30396058
0.32112821
0.3371447
0.35127588
0.36275909
0.37090003
0.37517322
0.37530492
0.37130244
0.36346649
0.35234544
0.33863638
0.3231025
0.30649539
0.28942221
0.27238158
0.25579246
0.23991743
0.22489563
0.21081793
0.19773435
0.18562583
0.17447076
0.16421362
0.15475735
0.14606213
0.13809459
0.13075353
0.12389151
0.11748791
0.11155417
0.10594681
0.095317726
0.10119324
0.10745951
0.11426278
0.12165884
0.12966885
0.13837857
0.14786046
0.15815601
0.16934562
0.18150002
0.19464308
0.20880192
0.22397967
0.24012183
0.25714888
0.27487285
0.2929881
0.31110653
0.32868205
0.3450582
0.35949076
0.37120187
0.37948879
0.38382322
0.38392798
0.37981404
0.37178586
0.36039462
0.34634859
0.33042273
0.31338649
0.29585523
0.27833873
0.26126722
0.24491175
0.22942115
0.21488885
0.20136976
0.18884802
0.17730163
0.16668337
0.15689977
0.14789564
0.13961754
0.13199416
0.1249406
0.11843059
0.1124323
0.10666737
0.096052923
0.10227176
0.10880895
0.11587611
0.12353611
0.13183725
0.14086775
0.15068718
0.16134388
0.17292078
0.18548662
0.19906085
0.21366723
0.22931137
0.24592742
0.26343396
0.28162624
0.30019513
0.31874199
0.33671459
0.35343475
0.36815074
0.38007337
0.388497
0.39288489
0.39296364
0.38874301
0.38052853
0.36888111
0.35451142
0.33821201
0.32075695
0.30277678
0.28479731
0.2672522
0.25042277
0.23446608
0.21947833
0.20552653
0.19258862
0.18065026
0.16966214
0.15953522
0.15021001
0.14162658
0.13371472
0.12640361
0.11966436
0.11345937
0.10740623
0.096836157
0.10334987
0.11017947
0.11753548
0.12549363
0.13411474
0.14349099
0.15367923
0.16472545
0.17671818
0.18972253
0.20375396
0.21883726
0.23496654
0.25207729
0.27007606
0.28875594
0.30779435
0.32678082
0.34514708
0.36221153
0.37720549
0.38933891
0.39789508
0.40233538
0.40238496
0.39805655
0.38965627
0.37775007
0.36306019
0.34638153
0.3285039
0.31006765
0.29160432
0.27356679
0.25624546
0.2397985
0.22433588
0.20992197
0.19654174
0.18418306
0.17279116
0.16228297
0.15260541
0.14369485
0.13548584
0.1278985
0.12089388
0.11443853
0.10812059
0.097501515
0.1042666
0.11138762
0.11904354
0.12732713
0.13629941
0.14605138
0.15663554
0.16810522
0.18054334
0.19401691
0.20853961
0.22412955
0.24078301
0.25841762
0.27693803
0.29613149
0.3156634
0.33510982
0.35389076
0.37131184
0.38659819
0.39894562
0.40763661
0.41212922
0.41214798
0.40770445
0.39911019
0.38693437
0.37190711
0.3548308
0.33650411
0.31758164
0.29861197
0.28005091
0.26220141
0.24523278
0.22925595
0.21434298
0.20048378
0.18766738
0.17584482
0.16492588
0.15486544
0.14559968
0.13707536
0.12919826
0.1219227
0.11520827
0.10866329
0.097968788
0.10499971
0.11243714
0.1204248
0.12906849
0.13842443
0.14858564
0.15960055
0.17152396
0.18443565
0.19840421
0.21344865
0.22957499
0.24677143
0.26496207
0.28403319
0.30376501
0.3238147
0.34373795
0.3629487
0.38074133
0.39632746
0.40889676
0.41772551
0.42226884
0.42225208
0.41768995
0.40889209
0.39643504
0.38105289
0.36355765
0.34475803
0.32533032
0.30582256
0.28670821
0.26829911
0.25077579
0.23425312
0.2188128
0.20444319
0.19113891
0.17885094
0.16749708
0.15702812
0.14738165
0.1385053
0.13031175
0.12274645
0.1157486
0.1089713
0.098192053
0.10552495
0.11331259
0.12167586
0.13071632
0.14049198
0.1510954
0.16257564
0.17498491
0.18840615
0.20290805
0.21850231
0.2351985
0.25297419
0.2717455
0.29139316
0.31168802
0.33227162
0.35269225
0.37234752
0.3905191
0.40641313
0.41920577
0.42817154
0.43276403
0.43271075
0.42802194
0.41901195
0.40626357
0.39051262
0.37258606
0.35330121
0.33333761
0.31326432
0.29356816
0.27456845
0.25645724
0.23935559
0.22334749
0.20843353
0.19460504
0.18182257
0.1699997
0.15908932
0.14903165
0.13977028
0.13122651
0.12333403
0.11602218
0.10899139
0.098103338
0.10578146
0.1139589
0.12272972
0.13220014
0.14243525
0.15352069
0.16550321
0.17844487
0.19241755
0.20749272
0.22367911
0.2409799
0.25937411
0.27875944
0.29901762
0.31990083
0.34104009
0.36197386
0.38208516
0.40064693
0.41684971
0.42987125
0.43897533
0.44361509
0.44351847
0.43869897
0.42947288
0.41641999
0.40028972
0.38191125
0.36211584
0.34159467
0.32093298
0.30061984
0.28099613
0.2622591
0.24453882
0.22792283
0.21241713
0.19802347
0.18470147
0.1723711
0.16098356
0.15047686
0.14079759
0.13186135
0.12360478
0.11594741
0.10862861
0.09762323
0.1056953
0.11429891
0.1235187
0.13346592
0.1441987
0.15580894
0.16834565
0.18186464
0.19643584
0.21212908
0.22895078
0.24689742
0.26594269
0.28598072
0.30687699
0.32838004
0.35010502
0.37157118
0.3921537
0.4111147
0.42763479
0.44088224
0.45012227
0.45480744
0.454665
0.44970957
0.44025745
0.42689364
0.41036856
0.39152319
0.37119215
0.35008583
0.32879694
0.3078333
0.28753947
0.26813123
0.24974429
0.23247593
0.21633792
0.20133382
0.1874293
0.1745486
0.16263728
0.15163833
0.1414971
0.13212558
0.12346574
0.11542003
0.10776862
0.096647222
0.10515798
0.11423067
0.12394252
0.13441286
0.14569674
0.15788622
0.17102882
0.18517243
0.20039216
0.21675734
0.23426208
0.25290321
0.27265277
0.29338637
0.31495848
0.3371111
0.35944354
0.38146505
0.40253593
0.42190503
0.43874562
0.4522243
0.46159821
0.466324
0.46613045
0.4610331
0.45134712
0.43765922
0.42072515
0.40139312
0.38050833
0.35878453
0.3368359
0.31517726
0.29417464
0.27404775
0.2549463
0.23697341
0.22014635
0.20447694
0.1899349
0.17644854
0.16396105
0.15241931
0.14176753
0.13191343
0.12280401
0.11432816
0.10628837
0.095038188
0.10403982
0.11363883
0.123898
0.13494435
0.1468346
0.159658
0.17346284
0.18829716
0.20423142
0.22132336
0.23957495
0.25896924
0.27946604
0.30093489
0.32322414
0.34606097
0.36903696
0.39163164
0.41320495
0.43299531
0.45016328
0.46386896
0.47337733
0.47814
0.47789029
0.47264225
0.46271342
0.44869182
0.43133327
0.41149077
0.39001943
0.36764905
0.34500357
0.32261181
0.30084875
0.27995033
0.26007305
0.24133705
0.2237579
0.20736121
0.19212431
0.1779704
0.16484644
0.15270247
0.14147858
0.13108369
0.12146469
0.11250757
0.10402438
0.092610395
0.10217012
0.11235205
0.12322569
0.13491694
0.14748109
0.16100839
0.17555069
0.19114339
0.20785847
0.22574613
0.24480273
0.26500549
0.2863108
0.30857333
0.33162973
0.35519125
0.37883475
0.40203087
0.42412006
0.44433955
0.46183764
0.47577466
0.4854135
0.49020976
0.48989803
0.48449547
0.4743139
0.45994519
0.44214777
0.42177379
0.39968971
0.37663377
0.35324142
0.33006138
0.30748161
0.28575391
0.26504545
0.24547355
0.22707889
0.20988714
0.19387612
0.17897875
0.16514636
0.15232668
0.14046115
0.12945845
0.11926317
0.10975419
0.10076381
0.089114185
0.099309757
0.11015255
0.12171873
0.13413051
0.14745362
0.161767
0.17713056
0.19356694
0.21113828
0.22990138
0.24984403
0.27093585
0.29311285
0.31622148
0.34009129
0.36442302
0.38877264
0.41259998
0.43522867
0.45588648
0.47372036
0.48788375
0.49764835
0.50247334
0.50209317
0.49652423
0.48608097
0.47135472
0.45309462
0.43216466
0.40943575
0.3856546
0.361477
0.33745931
0.31399904
0.2913685
0.26974477
0.24926105
0.22996825
0.21189385
0.19501719
0.17929093
0.16466018
0.1510735
0.13847675
0.12678509
0.11592828
0.10579209
0.096224249
0.084238055
0.09515505
0.10675702
0.11911022
0.13234628
0.14652556
0.16172444
0.17800236
0.19538074
0.21391319
0.23364563
0.2545606
0.27661423
0.29974142
0.32377298
0.34851233
0.37366334
0.39876129
0.42324395
0.4464341
0.46754679
0.48571988
0.50011513
0.50999907
0.51484424
0.51438842
0.50864596
0.49793528
0.48283236
0.46409374
0.44258023
0.41916541
0.39461214
0.36959157
0.34466408
0.32025377
0.29663714
0.27401404
0.25253426
0.23223981
0.21317677
0.19533793
0.17867782
0.16313833
0.14868104
0.13524591
0.12275337
0.1111434
0.10028514
0.090036047
0.077542511
0.089294617
0.1017735
0.11503718
0.12922591
0.14438599
0.16059366
0.17791315
0.19634987
0.21595071
0.23675636
0.25874685
0.28186373
0.30602832
0.33106455
0.35675357
0.38277363
0.40867129
0.43385128
0.45762239
0.47919938
0.49772211
0.51234651
0.52235049
0.52720943
0.52667046
0.5207467
0.50974956
0.49425864
0.47501373
0.45288348
0.42874327
0.40336551
0.37742456
0.35151642
0.32606263
0.30137457
0.27765644
0.25505738
0.23364737
0.21347817
0.19454796
0.17681685
0.16024013
0.14477491
0.13037479
0.11695359
0.10445612
0.09274814
0.081702228
0.068435555
0.08118237
0.094677412
0.10901214
0.12430671
0.14060536
0.15798235
0.17649482
0.19613592
0.21693936
0.2389558
0.26214746
0.28644323
0.31175114
0.33787819
0.36460008
0.39157219
0.41832088
0.44424321
0.46862855
0.49069177
0.50956825
0.52442178
0.53454049
0.53940562
0.53877464
0.532659
0.52136215
0.50545782
0.48568485
0.46290124
0.4379816
0.41170993
0.38478317
0.35779756
0.3312049
0.30532908
0.28038312
0.25653663
0.23387022
0.21244191
0.19226587
0.17330498
0.15552569
0.13887851
0.12333786
0.10881675
0.095264098
0.082548992
0.07054835
0.056103908
0.070046146
0.084770167
0.10038402
0.11698966
0.13462439
0.1533618
0.17324828
0.19427403
0.21646057
0.23984656
0.26438302
0.28999134
0.31658155
0.34392977
0.37178581
0.39979737
0.42747197
0.45418625
0.47922597
0.50179853
0.52104268
0.53613032
0.54635723
0.55122315
0.55049123
0.5441696
0.53255893
0.51621829
0.49587876
0.472392
0.44663303
0.41938696
0.39137832
0.36320721
0.33534322
0.30813479
0.28180666
0.25655388
0.23245571
0.2095765
0.18796071
0.16757928
0.14838772
0.13035085
0.11346169
0.097620295
0.082789127
0.068855541
0.055682826
0.039418773
0.05481896
0.071053891
0.088233247
0.10642259
0.1256539
0.14602604
0.16755401
0.19018473
0.21394773
0.23889543
0.26496999
0.29207381
0.32009672
0.34881272
0.37794473
0.4071171
0.43581601
0.46340016
0.48914139
0.51225473
0.5318803
0.54720651
0.55754154
0.56239671
0.56155442
0.55501824
0.54307246
0.52626931
0.50532682
0.48108099
0.45440588
0.42608452
0.39685597
0.36734491
0.33804329
0.30932893
0.28143704
0.25456446
0.22882052
0.20428762
0.18100526
0.15893727
0.13803254
0.11829115
0.099737618
0.082276034
0.065861799
0.050415501
0.03577543
0.016850994
0.034157305
0.052350724
0.071481057
0.091628485
0.11287548
0.13524857
0.158644
0.18304131
0.20863028
0.23540754
0.26327033
0.29211073
0.32180947
0.35209941
0.3826873
0.41316117
0.44301072
0.47154911
0.49805014
0.52174283
0.54176987
0.55733961
0.56777877
0.572617
0.57165859
0.5648946
0.55259647
0.53530811
0.51371565
0.48864865
0.4609594
0.43143958
0.40084322
0.36980625
0.33885427
0.30838837
0.27866922
0.24990026
0.22219103
0.19566814
0.17044793
0.14657368
0.12377903
0.10197569
0.081324838
0.061806586
0.043340684
0.025838826
0.0092020702
-0.01298178
0.0062909489
0.026955648
0.048583485
0.071249825
0.094976394
0.11959452
0.14501594
0.17181382
0.19991743
0.22889739
0.25880607
0.28966475
0.32131478
0.35345113
0.38570936
0.41765761
0.44877272
0.47834727
0.50566058
0.5299454
0.55037445
0.566173
0.57669482
0.58148998
0.58042164
0.57344581
0.56080996
0.54302789
0.52077168
0.4948349
0.46607058
0.43523889
0.4031027
0.37031952
0.3374476
0.30496745
0.27317923
0.24224705
0.21216897
0.18309225
0.1550021
0.12839872
0.10343128
0.07936603
0.056160601
0.034071239
0.013047374
-0.0069943768
-0.025612329
-0.047616918
-0.026351133
-0.0029220524
0.021440399
0.046682605
0.072927819
0.10027449
0.12860746
0.15796274
0.18810428
0.21914053
0.25137206
0.28471134
0.31869329
0.35292769
0.38706135
0.42062963
0.4531119
0.48376889
0.51190313
0.53678647
0.55759493
0.57358932
0.58414882
0.58889196
0.58773525
0.58058159
0.56765045
0.54942301
0.52653064
0.49973939
0.46985611
0.43764168
0.40383878
0.36910611
0.33399528
0.29899989
0.26469917
0.23146446
0.19916479
0.1678031
0.1375209
0.10825657
0.079992508
0.052782908
0.026751003
0.0018434438
-0.02209268
-0.045034467
-0.065772844
-0.085256433
-0.06266296
-0.036807705
-0.0097164426
0.018187107
0.047152821
0.077202307
0.10831868
0.14058192
0.17385108
0.20826924
0.24382399
0.28012476
0.31679851
0.3533701
0.38955927
0.42480306
0.45866023
0.49031811
0.51916129
0.54450411
0.5655666
0.58167675
0.59229348
0.59718921
0.59590364
0.58846006
0.57530476
0.55678656
0.53344271
0.50598447
0.47515145
0.44165762
0.40622024
0.3695057
0.33205908
0.29432786
0.25681063
0.21996932
0.18405603
0.14923858
0.11575186
0.083493251
0.05238852
0.022414643
-0.0063292097
-0.034024959
-0.060868187
-0.086404588
-0.10847454
-0.10453016
-0.081621833
-0.05470037
-0.025511643
0.0047981202
0.036509849
0.069699719
0.10405588
0.13941173
0.17577858
0.21308547
0.25094844
0.28921052
0.32741832
0.36520167
0.4022226
0.43804206
0.47210859
0.50378574
0.53243181
0.55746935
0.57816996
0.59405268
0.60483262
0.60972965
0.60832396
0.6007677
0.58749728
0.56920268
0.54616141
0.51891977
0.48817287
0.45456202
0.41877931
0.38133044
0.34286601
0.30384332
0.26447148
0.22548003
0.1868485
0.14885813
0.11192076
0.07622574
0.041661929
0.0083796302
-0.023298716
-0.053545745
-0.082368793
-0.10895011
-0.13131352
0.098757692
0.091942054
0.084180393
0.076491338
0.068138533
0.058775733
0.048498574
0.037308691
0.025106565
0.011887892
-0.002286076
-0.017344506
-0.033203489
-0.049747115
-0.066823055
-0.084251684
-0.10182258
-0.11930852
-0.13646559
-0.15305973
-0.16885605
-0.18364007
-0.19725024
-0.20956657
-0.22051072
-0.23005837
-0.23823346
-0.2451
-0.25075522
-0.25532214
-0.25893939
-0.26174704
-0.26388912
-0.26549895
-0.26670386
-0.26762664
-0.26837256
-0.26904844
-0.26975346
-0.27057025
-0.27160333
-0.27299938
-0.27432319
-0.27609765
-0.27826766
-0.28078577
-0.2835958