/*--------------------------------*- C++ -*----------------------------------*\
  =========                 |
  \\      /  F ield         | OpenFOAM: The Open Source CFD Toolbox
   \\    /   O peration     | Website:  https://openfoam.org
    \\  /    A nd           | Version:  8
     \\/     M anipulation  |
\*---------------------------------------------------------------------------*/
FoamFile
{
    version     2.0;
    format      ascii;
    class       surfaceScalarField;
    location    "350";
    object      phi;
}
// * * * * * * * * * * * * * * * * * * * * * * * * * * * * * * * * * * * * * //

dimensions      [0 3 -1 0 0 0 0];

internalField   nonuniform List<scalar> 
33655
(
-0.017297486
0.016701702
0.00059578386
0.016010588
0.00069111406
0.015247056
0.00076353122
0.014425523
0.00082153354
0.013570854
0.00085466858
0.012694196
0.00087665768
0.01181751
0.0008766865
0.010948641
0.0008688688
0.010101883
0.000846758
0.0092884316
0.00081345142
0.0085175844
0.00077084716
0.0077887352
0.00072884915
0.0071088909
0.00067984422
0.0064761961
0.0006326948
0.0058952417
0.00058095438
0.00535599
0.00053925169
0.0048629969
0.00049299309
0.0044131702
0.00044982663
0.0040039621
0.00040920812
0.0036311196
0.00037284241
0.0032923677
0.00033875189
0.0029775777
0.00031479001
0.0026869143
0.00029066342
0.0024256064
0.00026130781
0.0021923282
0.00023327821
0.0019790877
0.00021324057
0.0017838882
0.00019519949
0.0016040845
0.0001798037
0.0014368659
0.00016721851
0.001279505
0.00015736096
0.001133257
0.00014624796
0.00099588558
0.0001373714
0.00086765476
0.0001282308
0.00074566266
0.00012199207
0.00062915886
0.00011650379
0.00051793563
0.00011122319
0.00041252087
0.00010541475
0.00031182454
0.00010069629
0.0002152321
9.6592415e-05
0.00012168151
9.3550557e-05
3.1164637e-05
9.0516844e-05
-5.8042784e-05
8.9207384e-05
-0.00014879226
9.0749446e-05
-0.00024372061
9.4928317e-05
-0.00034466287
0.00010094223
-0.00045298014
0.00010831724
-0.00056964151
0.00011666134
-0.00069451888
0.00012487734
-0.00082551684
0.00013099792
-0.0009608562
0.00013533934
-0.033090928
0.032337146
0.0013495662
0.031488101
0.0015401584
0.030561261
0.0016903718
0.029534575
0.0018482192
0.028426284
0.0019629592
0.027246793
0.0020561491
0.025990814
0.0021326651
0.024689868
0.0021698152
0.023354189
0.0021824367
0.021998586
0.0021690545
0.020644649
0.0021247838
0.01931086
0.0020626386
0.01800018
0.0019905236
0.016730824
0.001902051
0.015505657
0.001806121
0.014343494
0.0017014148
0.013238051
0.001598436
0.012198199
0.0014896794
0.011226788
0.0013806187
0.010325631
0.0012739992
0.0094814285
0.0011829545
0.0087101445
0.001086074
0.007993479
0.0010073289
0.007332072
0.00092271481
0.0067211255
0.00084422464
0.006156261
0.0007781051
0.0056356769
0.00071578354
0.0051538422
0.00066163845
0.0047033166
0.00061774412
0.0042882376
0.00057243995
0.0038960122
0.00053847328
0.0035299901
0.00050339349
0.0031854006
0.0004728203
0.0028589397
0.00044845292
0.0025485349
0.00042690858
0.0022555092
0.00040424889
0.0019750819
0.00038584197
0.0017074557
0.00036832243
0.0014501674
0.00035388076
0.0012024399
0.00034127799
0.00096110563
0.00033185106
0.00072328732
0.00032702566
0.00048705534
0.00032698139
0.00025018718
0.00033179644
9.4919695e-06
0.00034163741
-0.00023718798
0.00035499715
-0.00048989234
0.00036936565
-0.00074663889
0.00038162386
-0.0010032436
0.00038760262
-0.0012541214
0.00038621711
-0.03807471
0.037546093
0.001878183
0.03695496
0.0021312916
0.036274088
0.0023712435
0.035528224
0.0025940835
0.03470416
0.0027870235
0.033790468
0.0029698405
0.032786001
0.0031371327
0.031717759
0.0032380572
0.030545551
0.0033546447
0.029318161
0.0033964439
0.028019614
0.0034233312
0.026687706
0.0033945466
0.025321472
0.0033567574
0.023950864
0.0032726594
0.022575774
0.0031812105
0.021226084
0.0030511052
0.019902881
0.0029216392
0.018612745
0.0027798148
0.017382325
0.002611039
0.016189541
0.002466783
0.015073175
0.0022993207
0.014012326
0.0021469223
0.013015232
0.0020044233
0.012078323
0.0018596242
0.011200596
0.0017219517
0.010377995
0.0016007057
0.0096096623
0.0014841162
0.0088926103
0.0013786904
0.008220881
0.0012894733
0.0075883402
0.0012049808
0.0070010256
0.0011257878
0.0064404913
0.0010639278
0.0059148041
0.00099850749
0.0054149144
0.00094834257
0.0049413145
0.00090050845
0.0044934215
0.00085214192
0.0040633657
0.0008158977
0.0036533778
0.00077831035
0.0032595367
0.00074772179
0.0028811278
0.00071968684
0.0025137239
0.00069925494
0.0021578592
0.00068289036
0.0018076697
0.00067717078
0.0014653707
0.00067409543
0.0011273272
0.00067968086
0.000795133
0.00068719132
0.00047007234
0.00069442627
0.00015432181
0.00069737436
-0.00014657164
0.00068849603
-0.00042800236
0.00066764779
-0.038630502
0.038365998
0.0021426868
0.038018466
0.0024788235
0.037595586
0.0027941238
0.03710214
0.0030875298
0.03653477
0.0033543932
0.035897629
0.0036069816
0.035211501
0.0038232601
0.034422153
0.0040274055
0.033590504
0.0041862932
0.032662055
0.0043248928
0.031677679
0.0044077072
0.030604947
0.0044672794
0.029485022
0.0044766819
0.028302175
0.0044555065
0.027088771
0.0043946143
0.025842204
0.0042976723
0.024584136
0.0041797067
0.023344605
0.0040193457
0.022084496
0.0038711487
0.020867599
0.0036836795
0.019672682
0.0034942376
0.018519408
0.0033001959
0.017407555
0.0031162764
0.016345664
0.0029215157
0.015333644
0.0027339715
0.014370503
0.0025638464
0.013457729
0.0023968907
0.012593061
0.0022433578
0.011774065
0.0021084694
0.010998798
0.001980248
0.010259872
0.0018647137
0.0095688913
0.0017549084
0.0088993627
0.0016680362
0.0082719783
0.0015757269
0.0076741643
0.0014983224
0.0071010055
0.0014253007
0.0065562133
0.0013606899
0.006031432
0.0013030916
0.0055286405
0.0012505133
0.0050433082
0.0012050191
0.0045786274
0.0011639357
0.0041274025
0.0011341152
0.0036955745
0.0011089987
0.003275396
0.0010942739
0.0028746881
0.0010803887
0.0024904904
0.001071389
0.0021253689
0.0010595477
0.0017827652
0.001039978
0.0014663598
0.0010049014
0.0011827586
0.00095124902
-0.037816267
0.037671898
0.0022870564
0.037475246
0.0026754749
0.037242811
0.0030265592
0.036928176
0.0034021649
0.036560299
0.0037222699
0.036125262
0.0040420192
0.035628227
0.0043202948
0.035085508
0.0045701239
0.034461014
0.0048107873
0.03379858
0.0049873267
0.033061577
0.0051447107
0.032271735
0.0052571214
0.031419095
0.0053293217
0.030512296
0.0053623054
0.029551106
0.0053558048
0.028547721
0.0053010568
0.027497087
0.005230341
0.02641734
0.005099093
0.025316886
0.0049716023
0.024222331
0.0047782348
0.023116455
0.0046001135
0.022009562
0.0044070883
0.020946501
0.0041793375
0.019892797
0.0039752199
0.018871857
0.0037549112
0.017883626
0.0035520778
0.016930407
0.0033501089
0.016008661
0.0031651039
0.015139171
0.0029779593
0.014297998
0.0028214214
0.013485057
0.0026776544
0.012714425
0.0025255404
0.011974689
0.0024077717
0.011267904
0.0022825119
0.010584907
0.00218132
0.0099310684
0.0020791389
0.0093040906
0.0019876677
0.0087014439
0.0019057382
0.008123138
0.0018288192
0.0075672287
0.0017609283
0.0070310588
0.0017001056
0.0065208848
0.0016442892
0.0060275285
0.0016023549
0.0055606166
0.0015611858
0.0051179775
0.0015230277
0.00470004
0.0014893264
0.0043138537
0.0014457339
0.0039552851
0.0013985466
0.0036357376
0.0013244489
0.0033568984
0.0012300881
-0.036762428
0.036637314
0.002412171
0.036490432
0.0028223565
0.03630204
0.0032149514
0.036091476
0.0036127282
0.035841934
0.0039718122
0.035547386
0.0043365669
0.035200557
0.0046671244
0.034811723
0.0049589572
0.034385227
0.0052372832
0.033880297
0.0054922573
0.033332339
0.0056926684
0.032744622
0.0058448385
0.032101566
0.0059723773
0.031397709
0.0060661623
0.030668254
0.0060852599
0.029880335
0.006088976
0.029061551
0.0060491248
0.028197414
0.0059632298
0.027316525
0.0058524916
0.026389423
0.0057053365
0.025451805
0.0055377316
0.02451538
0.0053435133
0.023564789
0.0051299283
0.022621921
0.0049180878
0.021684332
0.0046925002
0.020760905
0.0044755052
0.019860395
0.0042506188
0.018979072
0.0040464268
0.018114079
0.0038429516
0.017284039
0.0036514615
0.0164886
0.0034730937
0.015703054
0.0033110865
0.01494966
0.0031611652
0.014215272
0.0030169
0.013511629
0.0028849629
0.012825971
0.002764797
0.012171061
0.0026425779
0.011533044
0.0025437545
0.010913708
0.002448155
0.010323008
0.0023516286
0.0097575308
0.0022655828
0.0092082692
0.0021935508
0.0086897937
0.0021208304
0.0082011279
0.0020498515
0.007740485
0.0019836707
0.0073118165
0.0019179949
0.0069166082
0.0018409422
0.0065566597
0.0017584951
0.0062356552
0.0016454534
0.0059648238
0.0015009195
-0.035813207
0.035678732
0.0025466463
0.035525777
0.0029753111
0.035341627
0.0033991018
0.035165367
0.003788988
0.034940515
0.0041966638
0.034705681
0.0045714014
0.034447591
0.0049252141
0.034141264
0.005265284
0.03380595
0.0055725977
0.033448622
0.0058495846
0.033049908
0.0060913828
0.032588232
0.0063065146
0.032095859
0.0064647501
0.03158198
0.0065800414
0.03100064
0.0066666001
0.030401567
0.0066880483
0.029760489
0.0066902031
0.029085941
0.006637778
0.028383835
0.006554597
0.027662547
0.0064266247
0.026908225
0.0062920532
0.02613816
0.0061135788
0.025351262
0.0059168258
0.024558289
0.0057110607
0.023761551
0.0054892384
0.022964682
0.0052723747
0.022173204
0.0050420966
0.021387692
0.0048319388
0.02061593
0.0046147133
0.019857248
0.0044101434
0.019103644
0.0042266978
0.018378118
0.0040366124
0.017668659
0.0038706245
0.016977474
0.0037080847
0.016295503
0.0035669333
0.015639866
0.0034204342
0.014988722
0.0032937223
0.014363366
0.00316911
0.013764335
0.0030471857
0.01317469
0.0029412737
0.0126095
0.0028307726
0.012074729
0.0027283222
0.01156353
0.0026320296
0.011077938
0.0025354427
0.010625692
0.0024359172
0.010208409
0.0023352778
0.0098189807
0.0022303703
0.0094746274
0.0021028483
0.0091621639
0.0019579169
0.0089038983
0.001759185
-0.034995208
0.034843517
0.0026983371
0.034685293
0.0031335353
0.034501238
0.0035831568
0.034301325
0.0039889004
0.034104697
0.0043932923
0.03388025
0.0047958476
0.033632099
0.005173366
0.033375207
0.0055221759
0.0331028
0.0058450042
0.032807947
0.0061444374
0.032481628
0.0064177027
0.032148162
0.0066399801
0.031760016
0.0068528957
0.031349835
0.0069902233
0.030914167
0.0071022677
0.030430225
0.0071719904
0.029930701
0.0071897273
0.029403678
0.0071648009
0.028863217
0.0070950575
0.028278913
0.0070109292
0.027699664
0.0068713016
0.02709271
0.0067205333
0.026470245
0.0065392903
0.025832268
0.0063490378
0.02518792
0.0061335866
0.024537124
0.0059231705
0.023882068
0.0056971523
0.023228679
0.0054853284
0.022578262
0.0052651297
0.021919896
0.0050685097
0.021290959
0.0048556343
0.020648697
0.0046788746
0.020028091
0.0044912303
0.019407607
0.0043285685
0.018808566
0.0041659744
0.018213628
0.0040153723
0.017632076
0.0038752747
0.017073935
0.0037272501
0.016516075
0.0036050459
0.015983828
0.0034735206
0.015465435
0.0033491662
0.014970642
0.0032231151
0.014502095
0.003100576
0.014063791
0.0029737469
0.013652451
0.0028472571
0.013269826
0.0027179031
0.012928999
0.0025711971
0.012621856
0.0024099908
0.012346537
0.0022332359
0.012129141
0.0019765811
-0.034279877
0.034123157
0.0028550569
0.033947102
0.0033095903
0.033764302
0.0037659563
0.033565758
0.0041874443
0.033355022
0.0046040288
0.033141008
0.0050098609
0.03290343
0.0054109444
0.032672114
0.0057534923
0.032416192
0.0061009262
0.03214544
0.0064151887
0.031864979
0.0066981641
0.031568073
0.0069368854
0.031270467
0.0071505016
0.030933478
0.0073272129
0.030585496
0.0074502493
0.030206724
0.0075507623
0.02982042
0.0075760312
0.02939592
0.0075893012
0.0289524
0.0075385776
0.028513225
0.007450104
0.028053309
0.0073312178
0.027572447
0.0072013952
0.02708796
0.0070237769
0.02659438
0.0068426178
0.026091769
0.0066361975
0.025582685
0.0064322545
0.025069639
0.0062101989
0.024553774
0.0060011928
0.024033869
0.0057850349
0.023518046
0.0055843333
0.022991715
0.0053819651
0.022479719
0.0051908697
0.021973648
0.0049973016
0.021462784
0.0048394326
0.020970352
0.0046584063
0.020475966
0.0045097582
0.020001628
0.0043496125
0.019520278
0.0042086006
0.019061133
0.0040641909
0.018617747
0.0039169061
0.018192384
0.0037745288
0.017780393
0.0036351067
0.017384652
0.0034963162
0.017025088
0.0033333113
0.016688314
0.0031840307
0.016385308
0.003020909
0.016113781
0.0028427247
0.01588175
0.0026420216
0.015683904
0.0024310817
0.015539231
0.0021212541
-0.033686105
0.033494698
0.0030464642
0.033300195
0.0035040936
0.033112338
0.0039538134
0.032913013
0.0043867689
0.032704734
0.0048123083
0.032477287
0.0052373072
0.032269863
0.0056183688
0.032021399
0.0060019564
0.031782223
0.0063401022
0.031532908
0.006664503
0.031278611
0.0069524612
0.031008007
0.0072074894
0.030725752
0.0074327562
0.030440288
0.0076126769
0.030152726
0.0077378112
0.029852952
0.0078505362
0.029517861
0.0079111227
0.029202059
0.0079051035
0.028854871
0.0078857655
0.028492606
0.0078123686
0.02810807
0.007715754
0.027751132
0.0075583331
0.027374595
0.0074003134
0.026988603
0.0072286101
0.026605211
0.0070195899
0.026220133
0.0068173324
0.025831075
0.0065992571
0.025443222
0.0063890457
0.02504248
0.0061857769
0.024666726
0.0059600863
0.024280341
0.0057683506
0.023896762
0.0055744485
0.02349137
0.0054026937
0.023127272
0.0052035303
0.022745751
0.0050399276
0.022371396
0.0048841134
0.022005683
0.0047153251
0.021660896
0.0045533878
0.02131702
0.0044080666
0.020978069
0.0042558575
0.020656607
0.0040959902
0.020354778
0.0039369361
0.020084211
0.0037668828
0.019814743
0.0036027792
0.019591589
0.0034071842
0.019391534
0.0032209644
0.01921983
0.0030144284
0.019080256
0.0027815955
0.018984113
0.0025272246
0.018934151
0.0021712167
-0.033157112
0.032953777
0.003249799
0.032755339
0.0037025313
0.0325445
0.004164653
0.032328957
0.0046023117
0.032112427
0.0050288382
0.031904469
0.0054452649
0.03167874
0.0058440983
0.031460713
0.0062199833
0.031224883
0.0065759323
0.030979984
0.0069094014
0.030732239
0.0072002061
0.030477431
0.0074622975
0.030227892
0.0076822956
0.02997529
0.0078652789
0.02969707
0.0080160307
0.029427742
0.0081198649
0.029160964
0.0081779003
0.028884575
0.0081814926
0.028601552
0.0081687882
0.028308586
0.0081053345
0.028027369
0.0079969709
0.02773096
0.007854742
0.027431675
0.0076995984
0.027142073
0.0075182122
0.026848838
0.0073128248
0.026559469
0.0071067012
0.02627926
0.0068794664
0.025997913
0.0066703927
0.025722603
0.0064610872
0.025436916
0.0062457732
0.025167682
0.0060375842
0.024905355
0.0058367761
0.024648281
0.0056597673
0.024383725
0.005468086
0.024139451
0.005284202
0.023900577
0.0051229876
0.023661019
0.0049548829
0.023420521
0.0047938853
0.023203812
0.0046247762
0.023001608
0.0044580607
0.022816365
0.0042812329
0.022640175
0.0041131267
0.022476372
0.0039306855
0.022346755
0.0037323962
0.022227658
0.0035262807
0.022147289
0.0033013339
0.022098338
0.0030633791
0.022075582
0.0028043514
0.022073676
0.00252913
0.022112061
0.0021328322
-0.032692953
0.032474608
0.0034681441
0.032259922
0.0039172174
0.032043417
0.0043811582
0.03183437
0.0048113581
0.031609937
0.005253271
0.03139457
0.005660632
0.031175469
0.0060632
0.030939707
0.0064557449
0.030713436
0.0068022029
0.030482179
0.0071406587
0.030250484
0.0074319012
0.030011873
0.0077009085
0.02975775
0.0079364186
0.029511668
0.0081113611
0.029260527
0.0082671707
0.029032609
0.0083477838
0.02878529
0.0084252184
0.028538839
0.0084279443
0.028293336
0.008414291
0.028065899
0.0083327719
0.027830116
0.0082327537
0.027592453
0.0080924049
0.027361168
0.0079308834
0.027130167
0.0077492127
0.026910242
0.0075327501
0.026698474
0.0073184688
0.026494354
0.0070835867
0.026303927
0.0068608201
0.026119276
0.0066457377
0.025945669
0.0064193803
0.025766406
0.0062168471
0.025608618
0.0059945642
0.025460393
0.005807992
0.025322331
0.0056061475
0.025168924
0.0054376096
0.025051579
0.0052403325
0.024932954
0.0050735077
0.024839583
0.0048872563
0.024749073
0.0047152864
0.024663081
0.0045440527
0.024596114
0.0043481994
0.024548986
0.0041602543
0.024534699
0.0039449729
0.024523653
0.0037434415
0.024538364
0.0035115699
0.024581884
0.0032578141
0.024642167
0.0030030955
0.024732242
0.0027142767
0.024837737
0.0024236352
0.02497086
0.0019997083
-0.032283067
0.03205087
0.0037003408
0.031824739
0.0041433487
0.031598734
0.0046071626
0.031378541
0.0050315518
0.031157113
0.0054746992
0.030935108
0.0058826363
0.030709488
0.0062888207
0.030491839
0.0066733932
0.030254698
0.0070393442
0.030033161
0.0073621961
0.029801942
0.0076631199
0.029567633
0.0079352175
0.029346654
0.0081573978
0.029105511
0.0083525035
0.028875618
0.0084970636
0.028638802
0.0085845998
0.028420804
0.0086432165
0.028191111
0.0086576377
0.027987425
0.0086179764
0.027777781
0.0085424167
0.02757488
0.0084356538
0.027369971
0.0082973142
0.027196252
0.0081046023
0.02702193
0.0079235351
0.02685665
0.0076980301
0.026702688
0.0074724303
0.02656041
0.0072258647
0.026418411
0.0070028191
0.026323688
0.0067404611
0.026226606
0.0065164621
0.026143302
0.0063001508
0.026061283
0.0060765834
0.026004367
0.0058649079
0.02595052
0.0056599947
0.025923459
0.0054646707
0.025898552
0.005265239
0.025902332
0.0050697274
0.02589789
0.0048916985
0.02592351
0.0046896661
0.025967816
0.0044997473
0.026020895
0.0042951199
0.026107088
0.0040740613
0.026193851
0.00385821
0.026314941
0.0036223507
0.026450053
0.0033764581
0.026609867
0.0030980002
0.026783683
0.0028292788
0.026981731
0.002516229
0.027189598
0.0022157679
0.027410798
0.0017785085
-0.031906695
0.031674074
0.0039329618
0.031430961
0.0043864615
0.031202067
0.0048360569
0.030965094
0.0052685251
0.030744368
0.0056954248
0.030522871
0.006104134
0.030292081
0.0065196098
0.030068619
0.006896856
0.029858734
0.0072492282
0.029626732
0.0075941983
0.029397057
0.0078927953
0.029181023
0.0081512513
0.028949892
0.0083885292
0.028725761
0.0085766341
0.028510659
0.0087121655
0.028285824
0.0088094349
0.028076949
0.0088520911
0.027869394
0.0088651929
0.027665483
0.0088218872
0.027478203
0.0087296974
0.02730784
0.008606016
0.027140482
0.008464673
0.026989002
0.008256082
0.026851591
0.0080609458
0.026728135
0.0078214863
0.026619846
0.007580719
0.026526983
0.0073187282
0.026448423
0.0070813787
0.02638897
0.0067999144
0.02633697
0.0065684617
0.026320655
0.006316466
0.026320338
0.0060769007
0.026340476
0.005844769
0.026364382
0.005636089
0.026421168
0.0054078845
0.026484983
0.0052014241
0.026568016
0.0049866938
0.026685198
0.0047745172
0.026797979
0.0045768846
0.026945236
0.0043524906
0.027115368
0.0041249873
0.0272848
0.0039046298
0.027489946
0.0036530637
0.027719054
0.0033932418
0.027959165
0.0031363473
0.028211586
0.0028455794
0.028495243
0.0025456217
0.028776854
0.0022346176
0.029082216
0.0019104056
0.02936414
0.0014965844
-0.031593838
0.031337171
0.0041896291
0.031090082
0.0046335507
0.030846539
0.0050796002
0.03061231
0.0055027536
0.030380052
0.0059276831
0.030151392
0.0063327939
0.029932551
0.0067384513
0.029705362
0.0071240443
0.029472297
0.0074822934
0.029257546
0.0078089496
0.029046966
0.0081033746
0.02881479
0.0083834283
0.028605008
0.0085983109
0.028396795
0.0087848469
0.028175181
0.0089337796
0.027972036
0.0090125798
0.027765602
0.0090585252
0.027565609
0.0090651857
0.027390031
0.0089974653
0.027209335
0.0089103934
0.027035361
0.00877999
0.026898466
0.0086015675
0.026767953
0.0083865949
0.026652172
0.0081767272
0.026557261
0.0079163975
0.026481388
0.0076565918
0.026423651
0.0073764648
0.02638814
0.0071168905
0.026354781
0.0068332733
0.026373993
0.006549249
0.026402833
0.0062876268
0.026443261
0.0060364723
0.026519159
0.0057688709
0.026618819
0.0055364285
0.026728315
0.0052983891
0.026874459
0.0050552796
0.027032685
0.0048284678
0.027201126
0.0046060763
0.027420354
0.0043576566
0.027639235
0.0041336091
0.02788323
0.0038809928
0.028164348
0.0036235113
0.028457691
0.003359721
0.028762107
0.0030888255
0.029088609
0.0028098445
0.029434397
0.0024997915
0.029785846
0.0021941722
0.030150079
0.001870385
0.030513581
0.0015469034
0.030860696
0.0011494692
-0.031301709
0.031034357
0.0044569806
0.030780918
0.0048869901
0.030529254
0.0053312645
0.030285335
0.0057466723
0.030044356
0.0061686621
0.029805254
0.0065718963
0.029580443
0.0069632622
0.029355823
0.0073486636
0.02914778
0.0076903367
0.028920969
0.0080357606
0.028699159
0.0083251844
0.028497038
0.0085855494
0.028274666
0.0088206825
0.028065255
0.008994258
0.02786632
0.0091327151
0.027659637
0.0092192628
0.027458336
0.0092598259
0.027295423
0.0092280987
0.027101801
0.0091910878
0.026935067
0.0090771268
0.026794488
0.0089205695
0.026660269
0.0087357859
0.026527917
0.0085189474
0.026444239
0.0082604051
0.026368382
0.0079922547
0.026314431
0.0077105429
0.026270264
0.0074206314
0.026274655
0.0071125001
0.026291551
0.0068163773
0.02631704
0.0065237595
0.026380588
0.0062240787
0.026483219
0.0059338414
0.0265755
0.00567659
0.026720234
0.0053916946
0.026892566
0.005126057
0.02707948
0.0048683654
0.027292947
0.0046150005
0.027547447
0.0043515764
0.027803674
0.0041014294
0.028099539
0.0038377437
0.028422145
0.0035583867
0.028745217
0.0033004399
0.029105333
0.0029996048
0.029475872
0.0027182864
0.029878043
0.0024076729
0.030285459
0.0020923757
0.03069424
0.0017853909
0.031109818
0.0014548064
0.031517473
0.0011392481
0.031899601
0.00076734111
-0.031037508
0.030760371
0.0047341183
0.030495365
0.0051519953
0.030236001
0.0055906286
0.029982076
0.0060005978
0.029745808
0.0064049299
0.029506462
0.0068112416
0.029272437
0.0071972874
0.029056712
0.0075643886
0.028824606
0.0079224433
0.028613047
0.0082473192
0.028393909
0.0085443224
0.02818081
0.0087986488
0.027977598
0.0090238936
0.027777478
0.0091943783
0.02758125
0.0093289435
0.027393384
0.0094071288
0.027203491
0.0094497187
0.027017578
0.0094140114
0.026860291
0.0093483749
0.026702488
0.0092349296
0.026558559
0.0090644991
0.026433846
0.0088604989
0.026327541
0.0086252519
0.026241778
0.0083461681
0.026176008
0.0080580249
0.026134505
0.0077520457
0.026120621
0.0074345151
0.02613294
0.0071001812
0.02617197
0.0067773478
0.026235965
0.0064597642
0.026327693
0.0061323508
0.026434932
0.0058266025
0.026581532
0.0055299897
0.026759039
0.0052141876
0.02695345
0.0049316463
0.027178233
0.0046435823
0.0274334
0.0043598335
0.027718503
0.0040664728
0.028032358
0.0037875751
0.028374795
0.0034953067
0.028731968
0.0032012131
0.029127717
0.0029046903
0.029521855
0.0026054674
0.029949463
0.0022906781
0.030383299
0.0019738364
0.030818043
0.0016576315
0.031272343
0.0013310909
0.03171783
0.0010093188
0.032150725
0.00070635349
0.032549516
0.0003685492
-0.030784269
0.030519773
0.0049986136
0.030237605
0.0054341639
0.02997129
0.0058569434
0.029718124
0.0062537634
0.029467289
0.0066557655
0.029230466
0.0070480646
0.029003841
0.0074239122
0.028763129
0.0078051003
0.028544303
0.00814127
0.028330215
0.0084614066
0.028127134
0.0087474036
0.027917256
0.0090085267
0.027714532
0.0092266178
0.027504683
0.0094042269
0.027317408
0.0095162185
0.027124034
0.0096005028
0.026952322
0.0096214305
0.026776934
0.0095894004
0.026611412
0.0095138969
0.026473242
0.0093730993
0.026340023
0.0091977181
0.02622018
0.0089803417
0.026119277
0.0087261546
0.026042072
0.0084233736
0.025987933
0.0081121641
0.025958743
0.0077812354
0.025956001
0.007437257
0.025979015
0.0070771677
0.026030873
0.0067254892
0.026113616
0.0063770216
0.026211291
0.0060346754
0.026351397
0.0056864968
0.026522557
0.0053588298
0.026711779
0.0050249651
0.026944385
0.004699041
0.027195092
0.0043928749
0.02749004
0.0040648854
0.027804076
0.0037524367
0.028148521
0.0034431295
0.028509094
0.0031347344
0.028896993
0.0028133133
0.029310277
0.0024914063
0.029758955
0.0021567894
0.030201
0.0018486336
0.030657788
0.0015170482
0.031124989
0.0011904302
0.031584215
0.00087186395
0.032041192
0.00055234174
0.032491954
0.00025559168
0.032867643
-7.1409618e-06
-0.030572806
0.030279284
0.0052921357
0.029992788
0.0057206599
0.02972758
0.0061221516
0.029469264
0.0065120795
0.029214097
0.0069109317
0.028973652
0.0072885098
0.028731365
0.0076661993
0.028509504
0.0080269612
0.028290145
0.0083606292
0.028069386
0.0086821656
0.027853739
0.0089630508
0.027649338
0.0092129272
0.027446452
0.0094295039
0.027269565
0.009581114
0.027072456
0.0097133274
0.026896026
0.0097769326
0.026715289
0.0098021679
0.026549356
0.0097553333
0.026393469
0.0096697839
0.026246498
0.0095200707
0.026116835
0.0093273809
0.026016291
0.0090808854
0.025924999
0.0088174469
0.025854597
0.0084937756
0.025807442
0.0081593193
0.025785505
0.007803172
0.02579052
0.0074322423
0.02582407
0.0070436178
0.025872361
0.0066771979
0.025964385
0.0062849978
0.02608639
0.0059126702
0.026241701
0.0055311857
0.026429224
0.0051713074
0.02664699
0.0048071985
0.026884138
0.0044618932
0.027166312
0.0041107008
0.027454905
0.0037762927
0.027786118
0.0034212234
0.028148127
0.0030811207
0.028538996
0.0027438649
0.028957079
0.0023952311
0.029386371
0.0020621136
0.029823807
0.0017193533
0.030290576
0.0013818649
0.03075608
0.0010515443
0.03122847
0.00071803923
0.031688951
0.00041138358
0.03213189
0.00010940185
0.03257432
-0.00018683875
0.032964762
-0.00039758248
-0.030363518
0.030061009
0.0055946442
0.029778274
0.0060033956
0.029501244
0.0063991813
0.029238573
0.0067747506
0.028982296
0.0071672084
0.02873597
0.0075348357
0.02849151
0.0079106591
0.02826102
0.0082574517
0.028040877
0.0085807716
0.027827664
0.0088953789
0.027616346
0.0091743685
0.027418378
0.0094108961
0.027224932
0.0096229495
0.027022854
0.0097831923
0.026844315
0.009891866
0.026661101
0.0099601469
0.026500236
0.0099630325
0.026333544
0.0099220258
0.026195392
0.0098079353
0.026057616
0.0096578468
0.025934069
0.0094509284
0.025829746
0.0091852084
0.025744111
0.0089030809
0.025676888
0.0085609991
0.025635423
0.0082007844
0.025619181
0.0078194135
0.025627982
0.0074234415
0.02566761
0.0070039894
0.025737376
0.0066074319
0.025836574
0.0061857998
0.025967884
0.0057813599
0.026118514
0.0053805563
0.026313026
0.0049767951
0.026528753
0.004591471
0.026789829
0.0042008172
0.027070498
0.0038300318
0.027395091
0.0034517004
0.027738232
0.0030780822
0.028097169
0.0027221836
0.028497206
0.0023438276
0.028909124
0.0019833129
0.029342993
0.0016282448
0.029795308
0.0012670387
0.03026197
0.00091520235
0.030724992
0.00058852191
0.031190353
0.00025267903
0.031640747
-3.9011375e-05
0.032081119
-0.00033097033
0.032494939
-0.00060065911
0.03287075
-0.00077339417
-0.030168053
0.029861337
0.0059013603
0.029571236
0.0062934959
0.029290079
0.0066803386
0.029013856
0.0070509741
0.028761324
0.0074197401
0.028514878
0.0077812815
0.028281167
0.0081443701
0.028046575
0.0084920434
0.027812669
0.0088146776
0.027602579
0.009105469
0.027399717
0.0093772304
0.027188315
0.0096222982
0.026993903
0.0098173621
0.026809077
0.0099680179
0.026619816
0.010081127
0.026452093
0.01012787
0.026295736
0.010119389
0.026137162
0.0100806
0.025989138
0.0099559588
0.025868562
0.0097784225
0.025753079
0.0095664118
0.025638881
0.0092994062
0.025568218
0.0089737443
0.025508572
0.0086206449
0.025471916
0.0082374406
0.025460326
0.0078310033
0.025475694
0.0074080729
0.025504882
0.0069748013
0.025590306
0.0065220083
0.025695676
0.0060804303
0.025818697
0.0056583387
0.02598632
0.0052129325
0.026187305
0.0047758102
0.026408501
0.0043702753
0.026661888
0.0039474298
0.026960238
0.0035316825
0.027277206
0.0031347323
0.027624103
0.0027311848
0.02801251
0.0023337765
0.028400696
0.0019556413
0.028812198
0.0015718111
0.029256434
0.001184009
0.029703815
0.00081965705
0.030149256
0.00046976188
0.030600161
0.00013761631
0.031038843
-0.00018600266
0.031483397
-0.00048356617
0.031903361
-0.00075093443
0.032296719
-0.00099401752
0.032653825
-0.0011305001
-0.029990784
0.029675997
0.0062161475
0.029382051
0.0065874423
0.029096108
0.0069662809
0.028823303
0.0073237796
0.028560054
0.0076829882
0.028298241
0.0080430946
0.028059589
0.0083830229
0.027826158
0.0087254745
0.027614921
0.009025914
0.02739174
0.0093286501
0.027182031
0.0095869398
0.026990422
0.0098139067
0.026798359
0.010009425
0.026602467
0.01016391
0.026430827
0.010252767
0.026267079
0.010291618
0.026089033
0.010297435
0.025961131
0.010208502
0.025818087
0.010099004
0.025681113
0.0099153957
0.025576976
0.0096705494
0.025482657
0.009393725
0.025406723
0.0090496776
0.025349056
0.008678312
0.025316584
0.0082699118
0.025308942
0.0078386451
0.025326121
0.0073908937
0.025373705
0.0069272179
0.025450994
0.0064447186
0.025543294
0.0059881295
0.025696552
0.0055050809
0.025866827
0.0050426574
0.026045233
0.0045974041
0.026293595
0.0041219128
0.026548709
0.0036923165
0.026835721
0.0032446697
0.027165257
0.0028051967
0.027511177
0.0023852641
0.027871056
0.0019738975
0.0282681
0.0015585976
0.028686159
0.0011537509
0.029096448
0.00077372014
0.029532513
0.00038359198
0.02996434
3.7934613e-05
0.030411005
-0.00030904915
0.030841337
-0.00061633436
0.031251643
-0.00089387291
0.031647344
-0.0011466351
0.032014753
-0.0013614271
0.032351441
-0.0014671891
-0.029826628
0.029512198
0.0065305778
0.029198029
0.0069016114
0.028914869
0.0072494407
0.028641013
0.0075976353
0.028368306
0.0079556955
0.028112746
0.008298655
0.027863843
0.0086319259
0.027638636
0.0089506817
0.027403263
0.0092612867
0.027193012
0.0095389008
0.026981088
0.0097988641
0.026782947
0.010012048
0.0265899
0.010202472
0.026424295
0.010329515
0.02624182
0.010435241
0.026070328
0.010463109
0.025922024
0.010445739
0.025772118
0.010358408
0.02563614
0.010234981
0.025521913
0.010029623
0.025400968
0.0097914939
0.025320574
0.0094741185
0.025248937
0.0091213144
0.025199996
0.0087272524
0.025169015
0.0083008933
0.025162813
0.0078448458
0.025187003
0.0073667042
0.025237168
0.0068770516
0.025302232
0.0063796545
0.025423817
0.0058665442
0.025549888
0.0053790105
0.025722388
0.004870157
0.025926203
0.0043935885
0.026149325
0.0038987905
0.026416404
0.003425237
0.026713768
0.0029473054
0.027015417
0.0025035481
0.02735635
0.0020443303
0.027723023
0.0016072244
0.028111458
0.001170162
0.028506392
0.00075881705
0.028929529
0.00035058213
0.029337868
-2.4746405e-05
0.029763655
-0.00038785409
0.030177005
-0.00072239858
0.030585185
-0.0010245153
0.030968874
-0.0012775621
0.031325674
-0.0015034362
0.031674916
-0.0017106692
0.031975669
-0.0017679422
-0.02970948
0.029366177
0.0068738808
0.029054545
0.0072132436
0.028754044
0.0075499416
0.028462846
0.0078888331
0.028199663
0.0082188782
0.027939704
0.0085586139