/*--------------------------------*- C++ -*----------------------------------*\
  =========                 |
  \\      /  F ield         | OpenFOAM: The Open Source CFD Toolbox
   \\    /   O peration     | Website:  https://openfoam.org
    \\  /    A nd           | Version:  8
     \\/     M anipulation  |
\*---------------------------------------------------------------------------*/
FoamFile
{
    version     2.0;
    format      ascii;
    class       surfaceScalarField;
    location    "350";
    object      phi_0;
}
// * * * * * * * * * * * * * * * * * * * * * * * * * * * * * * * * * * * * * //

dimensions      [0 3 -1 0 0 0 0];

internalField   nonuniform List<scalar> 
33655
(
-0.017218721
0.01662458
0.00059414126
0.015935387
0.00068919276
0.015174002
0.00076138507
0.014354857
0.00081914552
0.013502774
0.00085208253
0.012628747
0.00087402641
0.011754736
0.00087401186
0.010888613
0.00086612209
0.010044652
0.00084396164
0.0092340053
0.00081064643
0.0084658507
0.00076815453
0.0077395843
0.00072626634
0.0070621862
0.00067739807
0.0064318125
0.00063037366
0.0058530256
0.00057878689
0.0053158511
0.00053717454
0.0048248233
0.00049102772
0.0043768605
0.00044796281
0.0039693868
0.00040747361
0.0035981207
0.00037126609
0.0032606148
0.00033750588
0.0029467541
0.00031386064
0.0026572036
0.00028955053
0.002397508
0.00025969557
0.00216575
0.00023175801
0.0019537518
0.00021199815
0.0017596658
0.00019408606
0.0015809682
0.00017869751
0.0014147838
0.00016618449
0.0012585055
0.00015627824
0.001113338
0.00014516747
0.00097705155
0.00013628644
0.00084995581
0.00012709573
0.00072919335
0.00012076242
0.00061394323
0.0001152501
0.00050389697
0.00011004623
0.00039962316
0.00010427378
0.00030001902
9.9604109e-05
0.00020440926
9.5609727e-05
0.00011173628
9.2672942e-05
2.1912814e-05
8.9823437e-05
-6.6893531e-05
8.8806306e-05
-0.00015759467
9.0701109e-05
-0.00025263602
9.5041313e-05
-0.00035357605
0.00010093999
-0.00046143077
0.00010785469
-0.00057673887
0.00011530806
-0.00069879595
0.00012205705
-0.00082484178
0.0001260458
-0.00095241808
0.00012757627
-0.032962076
0.032210235
0.0013459815
0.031363014
0.0015364143
0.030437894
0.0016865046
0.029412923
0.001844117
0.028306367
0.0019586377
0.027128579
0.0020518151
0.025874475
0.0021281157
0.024575485
0.002165112
0.023241933
0.002177513
0.021888832
0.0021637475
0.020537424
0.0021195628
0.019206178
0.0020575121
0.017898113
0.0019854638
0.016631385
0.0018971016
0.01540888
0.001801292
0.014249315
0.0016967392
0.013146458
0.0015938849
0.012109135
0.0014852855
0.011140177
0.0013764315
0.010241343
0.0012701001
0.009399513
0.0011793359
0.0086304721
0.0010829016
0.0079159493
0.0010040733
0.007256508
0.00091913687
0.0066475689
0.0008406971
0.0060847984
0.00077476863
0.0055662407
0.00071264376
0.0050863942
0.00065854393
0.0046378704
0.00061470828
0.0042247454
0.00056940328
0.0038345733
0.0005353395
0.003470611
0.0005002487
0.0031282612
0.0004694456
0.0028040656
0.00044495791
0.0024959452
0.00042337049
0.0022051181
0.00040087333
0.0019270968
0.00038229499
0.0016618413
0.00036485965
0.0014069114
0.00035053959
0.0011614242
0.00033816007
0.00092220627
0.00032904132
0.00068650574
0.0003245068
0.00045265572
0.00032455109
0.00021864844
0.00032904855
-1.832377e-05
0.00033791216
-0.00025976455
0.00034929543
-0.00050487322
0.00036041669
-0.00075084972
0.00036803351
-0.00099268046
0.0003678765
-0.0012239522
0.000358848
-0.037942221
0.037414988
0.0018732144
0.03682498
0.0021264226
0.03614532
0.0023661644
0.035400514
0.0025889229
0.034577299
0.0027818531
0.033664511
0.002964603
0.032660404
0.0031322224
0.031592309
0.003233207
0.030420198
0.0033496246
0.029192956
0.0033909885
0.027894829
0.0034176902
0.026563437
0.0033889045
0.025197817
0.0033510835
0.023827866
0.0032670522
0.022453552
0.003175606
0.021104668
0.0030456229
0.019782355
0.0029161979
0.018493225
0.0027744161
0.017263803
0.0026058534
0.016072197
0.0024617055
0.014957009
0.0022945244
0.013897572
0.0021423385
0.012901783
0.0019998617
0.011965933
0.0018549868
0.011089316
0.0017173145
0.010268002
0.0015960831
0.009501083
0.0014795623
0.0087855195
0.0013741074
0.0081154221
0.0012848057
0.0074846158
0.0012002096
0.0068990473
0.001120908
0.0063405274
0.0010587686
0.0058169382
0.00099303467
0.0053192639
0.00094263227
0.0048480713
0.000894563
0.0044027418
0.00084620283
0.0039755909
0.00080944587
0.0035684012
0.00077204932
0.0031776493
0.0007412914
0.0028024948
0.00071331456
0.0024385832
0.00069295285
0.0020865529
0.00067653711
0.0017408714
0.00067023249
0.0014039931
0.00066592687
0.0010728568
0.00066904842
0.00074954475
0.0006726074
0.00043590485
0.00067405654
0.00013477345
0.00066916487
-0.00014765135
0.00065030125
-0.00040647125
0.00061766786
-0.038507295
0.038243467
0.0021370419
0.037896475
0.0024734149
0.03747401
0.002788629
0.036980992
0.0030819408
0.036414009
0.0033488356
0.035777093
0.0036015193
0.035090919
0.0038183963
0.034301836
0.0040222896
0.033469887
0.0041815738
0.032540691
0.0043201845
0.031555324
0.004403057
0.030481585
0.0044626442
0.029360541
0.0044721268
0.028176572
0.0044510215
0.026961941
0.004390237
0.025714156
0.0042934075
0.024454874
0.0041754808
0.02321406
0.0040152293
0.021952885
0.0038670288
0.020734845
0.0036797448
0.019538961
0.0034904088
0.018384853
0.0032964462
0.017272208
0.0031125066
0.016209471
0.0029177245
0.015196676
0.0027301086
0.014232917
0.0025598423
0.013319683
0.0023927968
0.01245469
0.0022390997
0.011635605
0.0021038914
0.010860491
0.0019753231
0.010122059
0.0018593397
0.0094317347
0.0017490932
0.0087632212
0.0016615481
0.0081370466
0.0015688068
0.0075407515
0.0014908581
0.0069695539
0.0014174003
0.006426899
0.0013521008
0.0059047109
0.0012942373
0.0054050639
0.0012409383
0.0049232725
0.0011951059
0.0044626678
0.0011535575
0.0040163332
0.0011228717
0.0035901862
0.0010963795
0.0031769745
0.0010791385
0.002784593
0.0010614299
0.0024104448
0.0010467555
0.0020573486
0.0010271528
0.0017289809
0.00099753256
0.0014295455
0.00094973652
0.001165716
0.00088149738
-0.03770304
0.037559253
0.0022808286
0.037363157
0.0026695111
0.037130891
0.0030208947
0.036816282
0.0033965494
0.036448294
0.0037168244
0.036013058
0.0040367547
0.035516003
0.0043154511
0.034973006
0.0045652867
0.034348311
0.0048062687
0.033685266
0.0049832298
0.032947299
0.0051410241
0.03215618
0.0052537634
0.031301981
0.0053263253
0.030393348
0.0053596542
0.029429988
0.0053535972
0.028424159
0.0052992369
0.027370959
0.0052286808
0.026288517
0.0050976711
0.025185204
0.0049703415
0.024087578
0.0047773712
0.022978654
0.0045993326
0.021868799
0.0044063008
0.020802589
0.0041787165
0.019745746
0.0039745679
0.018721674
0.0037541801
0.017730407
0.0035511093
0.016774286
0.0033489183
0.015849882
0.0031635034
0.014977786
0.0029759876
0.014134328
0.0028187806
0.013319454
0.0026742134
0.012547145
0.0025214022
0.011806131
0.0024025629
0.011098544
0.002276393
0.010415303
0.0021740998
0.009761738
0.0020709648
0.0091354397
0.001978399
0.0085342313
0.0018954457
0.0079578751
0.0018172945
0.0074046787
0.0017483022
0.0068721775
0.0016860587
0.0063665678
0.0016284813
0.0058788851
0.0015840622
0.0054188183
0.0015392052
0.0049842678
0.0014959804
0.0045757167
0.0014553065
0.0042000959
0.0014027735
0.0038533736
0.0013442547
0.0035466274
0.0012564827
0.0032822478
0.0011458769
-0.036657852
0.036533186
0.0024054949
0.036386756
0.0028159413
0.036198824
0.003208827
0.035988498
0.0036068752
0.03573901
0.0039663125
0.035444367
0.004331397
0.035097426
0.0046623924
0.034707979
0.0049547343
0.034280721
0.0052335266
0.033775015
0.0054889353
0.033226196
0.0056898431
0.032637391
0.0058425689
0.031992981
0.0059707353
0.031287362
0.0060652726
0.030555797
0.0060851621
0.029765329
0.0060897049
0.02894353
0.0060504795
0.028076165
0.0059650369
0.027191512
0.0058549946
0.026260353
0.00570853
0.025318438
0.005541247
0.0243775
0.0053472386
0.023422183
0.0051340342
0.022474291
0.0049224591
0.021531515
0.0046969562
0.020602834
0.0044797902
0.019697065
0.0042546871
0.018810519
0.0040500494
0.017940489
0.0038460184
0.017105493
0.0036537756
0.016305251
0.0034744561
0.015515347
0.0033113059
0.014757847
0.0031600627
0.014019838
0.0030144024
0.013313033
0.0028809044
0.012624969
0.0027590291
0.01196823
0.0026351373
0.011329323
0.0025343531
0.0107099
0.0024367174
0.010120036
0.0023381667
0.0095563047
0.0022497895
0.0090100433
0.0021747426
0.0084956815
0.0020984239
0.008012216
0.0020226707
0.007557774
0.0019504223
0.0071360952
0.0018769853
0.006748483
0.0017903857
0.0063966037
0.0016961339
0.0060837252
0.0015693613
0.0058206087
0.0014089934
-0.035716299
0.035582163
0.0025396307
0.035429528
0.0029685758
0.035245719
0.0033926362
0.03506966
0.0037829344
0.03484498
0.0041909925
0.034610167
0.0045662099
0.034351974
0.0049205853
0.034045426
0.0052612821
0.033709675
0.0055692778
0.033351622
0.0058469883
0.032951935
0.00608953
0.032488991
0.0063055126
0.031995102
0.0064646245
0.031479631
0.006580743
0.030896551
0.0066682426
0.030295451
0.0066908051
0.029651814
0.0066941156
0.028973774
0.0066430775
0.028267649
0.0065611195
0.027541963
0.0064342153
0.026783073
0.0063001375
0.026008089
0.0061222221
0.025215639
0.0059264843
0.024416557
0.005721541
0.023613361
0.0055001527
0.022809745
0.0052834057
0.022011264
0.0050531685
0.02121855
0.0048427636
0.020439488
0.0046250803
0.019673468
0.0044197957
0.018912658
0.0042352659
0.01817997
0.0040439937
0.017463557
0.0038764751
0.016765737
0.003712223
0.016077639
0.0035690015
0.01541629
0.0034203789
0.014760251
0.0032911757
0.014130671
0.0031639329
0.013528217
0.0030391719
0.012936388
0.0029299952
0.012370149
0.0028160291
0.011835333
0.002709558
0.011325346
0.0026084114
0.010841978
0.0025060387
0.010392805
0.0023995947
0.0099792505
0.0022905398
0.0095941465
0.0021754896
0.0092539835
0.0020362969
0.0089456303
0.0018777144
0.0086900184
0.0016646052
-0.034905196
0.03475372
0.0026911062
0.034595675
0.0031266208
0.034411809
0.003576502
0.034212057
0.0039826864
0.034015484
0.0043875655
0.033791059
0.0047906347
0.033542881
0.005168764
0.033285858
0.0055183047
0.033013174
0.0058419623
0.032717845
0.0061423168
0.032390814
0.0064165611
0.032056351
0.0066399758
0.031666988
0.0068539872
0.031255227
0.0069925042
0.030817515
0.0071059545
0.030331433
0.0071768867
0.029829733
0.0071958162
0.029300092
0.0071727183
0.028756219
0.0071049924
0.028167691
0.0070227428
0.027584017
0.006883812
0.026972276
0.0067339625
0.026343928
0.0065548326
0.025699462
0.0063660066
0.025048229
0.0061513863
0.02439006
0.005941575
0.023727095
0.0057161328
0.02306535
0.0055045085
0.022406213
0.0052842173
0.021738898
0.0050871111
0.021100633
0.004873531
0.020449087
0.0046955395
0.019819112
0.0045064502
0.019189407
0.0043419272
0.018581258
0.0041771504
0.017977644
0.0040239936
0.017387841
0.0038809779
0.016821933
0.0037298416
0.016257221
0.0036038837
0.015718804
0.0034684113
0.015195327
0.0033395068
0.014696537
0.0032083478
0.014225023
0.0030799248
0.013784706
0.0029463562
0.0133723
0.0028120005
0.012989453
0.0026733863
0.012648939
0.0025160041
0.01234277
0.002342466
0.01206868
0.0021518045
0.011852162
0.0018811223
-0.03419619
0.034039535
0.002847761
0.033863555
0.0033026013
0.033680803
0.0037592536
0.033482287
0.0041812029
0.033271541
0.0045983112
0.033057449
0.0050047265
0.032819762
0.0054064513
0.032588228
0.0057498386
0.032332042
0.0060981488
0.032060941
0.0064134174
0.031779967
0.0066975349
0.031482374
0.0069375687
0.031183768
0.0071525938
0.030845493
0.0073307788
0.030495939
0.0074555087
0.030115208
0.0075576178
0.029726439
0.0075845852
0.029299271
0.0075998864
0.028853299
0.0075509643
0.028411709
0.0074643327
0.027947382
0.0073481388
0.027460634
0.0072207101
0.02697061
0.0070448569
0.026471057
0.0068655589
0.025961991
0.006660453
0.025445623
0.0064579424
0.024924509
0.0062372469
0.02439991
0.0060291081
0.023870639
0.0058134876
0.023344926
0.0056128243
0.02280831
0.0054101471
0.02228553
0.0052183196
0.021768368
0.0050236123
0.021246295
0.004864
0.020742466
0.0046809788
0.020236791
0.0045296692
0.019751222
0.0043665462
0.01925911
0.0042219536
0.018789487
0.0040735063
0.018336159
0.00392174
0.017901449
0.0037742166
0.017480841
0.0036289557
0.017077236
0.0034835296
0.016710257
0.0033133355
0.016366747
0.0031555101
0.016057371
0.0029827619
0.015779739
0.0027936359
0.015541522
0.002580683
0.015337314
0.0023560128
0.01518322
0.0020352165
-0.033608156
0.033416753
0.0030391641
0.033222236
0.0034971189
0.033034313
0.0039471761
0.032834903
0.0043806135
0.032626505
0.0048067085
0.032398923
0.005232309
0.032191239
0.0056141348
0.031942542
0.0059985356
0.031703025
0.0063376662
0.031453286
0.0066631562
0.031198459
0.006952362
0.030927246
0.0072087818
0.030644247
0.007435592
0.030357771
0.0076172551
0.030068942
0.0077443379
0.029767523
0.0078590367
0.029430427
0.0079216805
0.029112217
0.0079180969
0.028762245
0.0079009362
0.028396685
0.0078298929
0.028009051
0.0077357731
0.027647833
0.0075819277
0.027266245
0.0074264452
0.026875303
0.0072565003
0.026485876
0.0070498796
0.026093611
0.0068502076
0.025696635
0.0066342227
0.025300198
0.0064255455
0.024890218
0.0062234672
0.024504351
0.0059986915
0.024107254
0.0058072445
0.023712335
0.0056132381
0.02329515
0.0054407977
0.022918513
0.0052406361
0.022524201
0.0050752908
0.022136748
0.004917123
0.021757706
0.0047455878
0.021399405
0.004580255
0.021042071
0.0044308401
0.020689834
0.004273977
0.020355202
0.0041088481
0.020040347
0.0039438102
0.019756694
0.0037671824
0.019474495
0.0035955354
0.019238087
0.0033919171
0.019024319
0.0031965298
0.018837841
0.0029801146
0.018681696
0.002736828
0.018566243
0.0024714652
0.018493928
0.002107531
-0.033084469
0.032881041
0.0032425919
0.032682482
0.0036956774
0.03247152
0.0041581378
0.032255827
0.0045963069
0.032039101
0.0050234345
0.031830869
0.0054405406
0.031604853
0.0058401514
0.031386449
0.0062169397
0.031150206
0.0065739087
0.03090484
0.0069085221
0.03065654
0.0072006617
0.030401081
0.0074642415
0.030150746
0.0076859272
0.029897237
0.0078707635
0.029617981
0.0080235944
0.029347335
0.0081296825
0.029078835
0.0081901809
0.028800476
0.0081964558
0.028515001
0.008186411
0.028219093
0.0081258002
0.027934415
0.0080204518
0.027634346
0.0078819965
0.027331348
0.007729443
0.027036844
0.0075510046
0.026737638
0.0073490852
0.026441998
0.0071458482
0.026154748
0.0069214728
0.02586551
0.0067147828
0.025581429
0.0065075482
0.025286189
0.0062939311
0.025006534
0.0060868995
0.024732993
0.0058867797
0.02446388
0.0057099099
0.024186587
0.0055179293
0.023928839
0.0053330394
0.023675775
0.0051701868
0.023421609
0.0049997533
0.023166023
0.0048358405
0.022933701
0.0046631625
0.022715479
0.0044921987
0.022513788
0.0043105395
0.022320758
0.0041368398
0.022139703
0.0039482378
0.021991963
0.0037432744
0.021853958
0.0035299226
0.02175315
0.0032973379
0.021681844
0.0030514207
0.021634403
0.0027842684
0.021605307
0.0025005615
0.021613989
0.0020988487
-0.032625196
0.032406687
0.0034611006
0.032191818
0.0039105466
0.031975109
0.0043748464
0.031765808
0.0048056074
0.031541109
0.0052481338
0.031325412
0.0056562378
0.031105929
0.0060596338
0.030869771
0.0064530977
0.030643013
0.0068006671
0.030411198
0.0071403373
0.030178861
0.0074329983
0.029939543
0.0077035597
0.029684647
0.0079408234
0.029437638
0.0081177716
0.029185474
0.0082757589
0.028956297
0.0083588593
0.028707556
0.0084389216
0.028459409
0.0084446033
0.028211812
0.0084340078
0.027981821
0.0083557912
0.027743067
0.0082592058
0.027502186
0.0081228772
0.027266885
0.0079647436
0.027031439
0.0077864509
0.026806663
0.0075738615
0.026589571
0.00736294
0.026379299
0.0071317446
0.026181401
0.0069126811
0.025988626
0.0067003227
0.025806155
0.0064764028
0.02561727
0.0062757845
0.0254488
0.0060552494
0.02528892
0.0058697895
0.025138313
0.0056685367
0.024971612
0.0054997396
0.024839967
0.005301832
0.024706219
0.0051335018
0.024596782
0.0049452769
0.024489448
0.0047704963
0.024385813
0.0045958336
0.024300278
0.0043960749
0.024233572
0.0042035454
0.024198425
0.0039833843
0.024165345
0.0037763545
0.024156412
0.0035388559
0.024174268
0.003279481
0.024206772
0.0030189168
0.024266398
0.0027246427
0.024338904
0.0024280553
0.024436939
0.0020008137
-0.032219809
0.031987395
0.003693515
0.031761025
0.0041369164
0.031534759
0.0046011123
0.031314259
0.0050261076
0.031092489
0.0054699039
0.030870098
0.0058786294
0.030644051
0.0062856801
0.030425896
0.0066712529
0.030188233
0.00703833
0.029966073
0.0073624976
0.029734182
0.0076648892
0.029499118
0.0079386238
0.029277256
0.0081626855
0.029035184
0.0083598431
0.028804208
0.0085067346
0.028566203
0.0085968644
0.028346812
0.0086583133
0.028115572
0.0086758431
0.027910025
0.0086395545
0.027698204
0.0085676128
0.027492722
0.0084646869
0.027285034
0.0083305652
0.027107807
0.0081419708
0.026929448
0.00796481
0.026759585
0.007743725
0.026600345
0.0075221795
0.026452689
0.007279401
0.026304704
0.0070606662
0.026202742
0.0068022841
0.026097596
0.006581549
0.026005403
0.0063679774
0.025913479
0.0061471729
0.02584557
0.0059376984
0.025779901
0.0057342058
0.025739947
0.0055396939
0.025701177
0.0053406023
0.025689956
0.0051447227
0.025669562
0.0049656701
0.025677971
0.0047620878
0.025703837
0.0045699669
0.02573723
0.0043626822
0.025802107
0.0041386675
0.02586611
0.0039193814
0.025962498
0.0036799664
0.026070888
0.0034304665
0.026201674
0.0031486943
0.026343984
0.0028766072
0.026507721
0.0025609052
0.026678325
0.0022574514
0.026860369
0.0018187697
-0.031847604
0.031614705
0.0039264132
0.031371327
0.0043802947
0.031142115
0.0048303239
0.03090481
0.0052634133
0.030683678
0.005691036
0.030461735
0.0061005719
0.030230469
0.0065169459
0.030006465
0.0068952573
0.029795949
0.007248846
0.029563298
0.007595148
0.0293329
0.0078952877
0.029116031
0.0081554923
0.028884032
0.0083946846
0.028658903
0.0085849721
0.028442689
0.0087229483
0.028216648
0.0088229056
0.028006386
0.0088685753
0.02779731
0.008884919
0.02759167
0.0088451945
0.027402428
0.0087568551
0.027229741
0.008637374
0.027059841
0.008500465
0.026905345
0.0082964669
0.026764351
0.0081058041
0.026636857
0.0078712188
0.026523814
0.0076352218
0.026425497
0.0073777186
0.026341475
0.0071446885
0.026275825
0.0068679332
0.026216765
0.0066406092
0.026192555
0.0063921871
0.026183078
0.0061566507
0.026193212
0.0059275642
0.026206178
0.0057212392
0.026250947
0.0054949251
0.026301701
0.0052898486
0.026370436
0.0050759877
0.026472038
0.0048640674
0.026567978
0.0046661478
0.026696816
0.0044411294
0.02684689
0.0042126074
0.026994706
0.0039908516
0.027176164
0.003737923
0.027379368
0.0034767627
0.027591338
0.0032184963
0.027813123
0.0029269088
0.028063274
0.0026264558
0.028308716
0.0023154639
0.028574455
0.0019917117
0.028815246
0.0015779785
-0.031538543
0.0312816
0.0041833563
0.031034207
0.0046276873
0.030790331
0.0050742002
0.030555716
0.0054980275
0.03032303
0.0059237224
0.030093887
0.0063297144
0.029874497
0.0067363367
0.029646721
0.0071230329
0.029413027
0.0074825399
0.029197551
0.0078106243
0.028986173
0.0081066659
0.028753172
0.0083884925
0.028542424
0.0086054328
0.028333177
0.0087942194
0.028110451
0.0089456742
0.027906044
0.0090273129
0.027698246
0.0090763731
0.027496734
0.0090864313
0.027319438
0.0090224898
0.027136834
0.008939459
0.026960786
0.0088134228
0.026821505
0.0086397455
0.026688278
0.0084296934
0.026569288
0.0082247945
0.026470779
0.0079697276
0.026390809
0.0077151919
0.026328317
0.0074402109
0.026287474
0.0071855315
0.026248553
0.0069068539
0.026261437
0.0066277257
0.026282571
0.0063710532
0.026314833
0.0061243884
0.026381803
0.0058605936
0.026471561
0.0056314812
0.026570119
0.0053963676
0.026704065
0.0051559019
0.026848977
0.0049310759
0.027002747
0.0047102975
0.027205727
0.0044631678
0.027406922
0.0042399343
0.027631461
0.0039880681
0.027891045
0.0037312673
0.028160801
0.003468167
0.028439449
0.0031981139
0.028737633
0.002920313
0.029052492
0.0026120495
0.029370278
0.0023086693
0.029697943
0.001987799
0.030021702
0.0016679519
0.030326933
0.0012727478
-0.031249954
0.030982315
0.0044509954
0.030728556
0.0048814458
0.030476543
0.0053262139
0.03023222
0.0057423501
0.029990788
0.0061651541
0.029751186
0.0065693171
0.029525791
0.0069617314
0.02930054
0.0073482841
0.029091775
0.0076913047
0.028864221
0.008038178
0.028641597
0.0083292898
0.028438557
0.0085915322
0.028215238
0.0088287522
0.028004759
0.0090046985
0.027804654
0.0091457788
0.027596719
0.0092352481
0.027394036
0.0092790563
0.02722954
0.0092509276
0.027034268
0.0092177614
0.026865671
0.0091080556
0.02672299
0.0089561048
0.026586512
0.0087762229
0.026451652
0.0085645536
0.026365031
0.0083114153
0.026285899
0.0080488598
0.026228264
0.0077728264
0.026179922
0.0074885535
0.026179393
0.0071860597
0.026190708
0.0068955388
0.026209801
0.0066086327
0.026266543
0.0063143116
0.026362407
0.0060285246
0.026446991
0.0057760092
0.026582589
0.0054958836
0.026744837
0.0052341189
0.026920653
0.0049800866
0.027121745
0.0047299833
0.027362502
0.0044695412
0.027603647
0.0042220217
0.027882676
0.0039609057
0.028186635
0.0036841093
0.028489263
0.0034286388
0.028826718
0.0031307116
0.029172299
0.0028525329
0.02954699
0.0025456216
0.02992435
0.002234689
0.030300382
0.0019326379
0.030680492
0.0016076887
0.031049816
0.001298627
0.031391276
0.00093128785
-0.030989084
0.030711644
0.0047284357
0.030446317
0.005146773
0.030186591
0.0055859393
0.029932257
0.005996684
0.029695497
0.0064019138
0.029455608
0.0068092065
0.029220982
0.0071963575
0.029004565
0.0075647006
0.028771744
0.0079241266
0.028559376
0.0082505451
0.028339383
0.0085492828
0.028125355
0.008805561
0.027921134
0.0090329723
0.027719917
0.0092059157
0.027522492
0.009343204
0.027333322
0.0094244185
0.027142036
0.0094703422
0.02695459
0.0094383737
0.026795589
0.0093767626
0.026635942
0.0092677021
0.026489981
0.0091020658
0.026363053
0.0089031512
0.026254295
0.0086733118
0.026165794
0.0083999162
0.026096961
0.0081176927
0.026052028
0.0078177595
0.026034261
0.00750632
0.026042167
0.0071781543
0.026076238
0.0068614677
0.026134719
0.0065501512
0.026220461
0.0062285696
0.026320817
0.005928169
0.026459656
0.0056371701
0.026629138
0.0053264014
0.02681459
0.0050486667
0.027029188
0.0047654889
0.027272956
0.0044862146
0.027545498
0.0041969993
0.027845274
0.0039222459
0.028172003
0.0036341768
0.028511833
0.0033442794
0.028888187
0.0030522838
0.02926105
0.0027578492
0.029665085
0.0024484973
0.030072953
0.0021377536
0.03047942
0.0018282216
0.030902903
0.001509154
0.031315081
0.0011955103
0.031712033
0.00090167548
0.032072801
0.0005705193
-0.030739078
0.030474218
0.0049932957
0.030191722
0.005429269
0.029925025
0.0058526364
0.029671418
0.0062502908
0.029420087
0.0066532451
0.029182688
0.0070466057
0.028955409
0.0074236359
0.028714012
0.0078060983
0.028494408
0.0081437305
0.028279474
0.0084654789
0.028075475
0.0087532814
0.027864631
0.0090164055
0.027660863
0.0092367401
0.027449912
0.0094168666
0.027261419
0.0095316966
0.027066752
0.0096190862
0.026893604
0.0096434903
0.026716678
0.0096152993
0.02654947
0.0095439708
0.026409437
0.0094077346
0.026274219
0.0092372841
0.026152177
0.0090251933
0.026048855
0.0087766338
0.025968991
0.0084797799
0.025911929
0.0081747556
0.025879508
0.0078501802
0.025873143
0.0075126849
0.025892069
0.0071592283
0.025939381
0.0068141558
0.026017187
0.0064723449
0.026109381
0.0061363753
0.026243106
0.0057944442
0.026407312
0.0054729642
0.026588758
0.0051449559
0.026812551
0.0048248738
0.027053937
0.0045241025
0.027338669
0.0042014827
0.027641186
0.0038944824
0.02797253
0.0035909016
0.028318601
0.0032881059
0.028690435
0.0029724448
0.02908588
0.0026568396
0.029514643
0.0023290853
0.029934879
0.0020282616
0.030367717
0.0017049154
0.030808728
0.0013872103
0.031239637
0.0010782445
0.031666134
0.00076901324
0.032084041
0.0004837676
0.032425545
0.00022901528
-0.030530686
0.030236791
0.0052871906
0.029949939
0.0057161204
0.029684312
0.0061182635
0.029425538
0.0065090647
0.029169858
0.0069089252
0.028928814
0.0072876503
0.028685862
0.0076665872
0.028463239
0.0080287219
0.028243063
0.0083639057
0.02802144
0.0086871019
0.027804862
0.0089698602
0.027599462
0.0092218053
0.027395499
0.0094407024
0.027217436
0.0095949296
0.027019111
0.0097300223
0.026841341
0.0097968564
0.026659178
0.0098256529
0.026491708
0.0097827689
0.026334146
0.0097015331
0.026185339
0.0095565413
0.026053683
0.009368941
0.025950927
0.0091279487
0.025857266
0.0088702948
0.025784265
0.0085527808
0.025734265
0.0082247558
0.025709199
0.0078752462
0.025710762
0.0075111225
0.025740493
0.0071294967
0.025784577
0.006770072
0.025871961
0.006384961
0.02598876
0.0060195766
0.026138262
0.0056449423
0.026319405
0.0052918203
0.026529943
0.004934418
0.026759186
0.0045956309
0.027032489
0.0042507999
0.027311197
0.0039227743
0.027631275
0.0035744047
0.027981421
0.0032407555
0.028359204
0.0029103232
0.028762586
0.0025690629
0.029175439
0.0022439862
0.029594588
0.0019099365
0.030041181
0.0015816674
0.030484811
0.0012612855
0.030933401
0.00093862016
0.031368279
0.00064336635
0.031783843
0.00035344877
0.032197079
7.053185e-05
0.032557005
-0.00013091156
-0.030324182
0.030021268
0.0055901039
0.029738153
0.0059992353
0.029460722
0.006395695
0.029197606
0.00677218
0.028940824
0.0071657074
0.028693899
0.0075345756
0.028448759
0.0079117274
0.0282175
0.0082599804
0.027996514
0.0085848918
0.027782384
0.0089012317
0.027570104
0.009182141
0.027371078
0.0094208309
0.027176532
0.0096352488
0.026973298
0.0097981637
0.0267935
0.0099098204
0.026608957
0.0099813989
0.026446636
0.0099879741
0.026278387
0.0099510175
0.026138533
0.0098413871
0.02599893
0.0096961446
0.025873402
0.0094944692
0.025766937
0.0092344139
0.025678967
0.0089582647
0.025609174
0.0086225738
0.025564922
0.0082690073
0.025545629
0.007894539
0.025551062
0.0075056901
0.025587028
0.0070935306
0.025652785
0.0067043149
0.02574757
0.006290175
0.025873991
0.0058931564
0.026019241
0.0054996922
0.026207712
0.005103349
0.02641682
0.0047253094
0.026670521
0.0043419299
0.026942984
0.0039783373
0.027258332
0.0036074262
0.027591415
0.0032413219
0.027939066
0.0028931037
0.028326446
0.0025229442
0.028724278
0.0021712306
0.029142994
0.0018252699
0.029578774
0.0014741562
0.030027261
0.0011331805
0.030470532
0.00081801398
0.030914666
0.00049448721
0.03134232
0.00021571119
0.031758618
-6.2849056e-05
0.032146774
-0.00031762463
0.032495174
-0.00047931197
-0.030130808
0.029823712
0.0058972
0.029533291
0.0062896568
0.029251818
0.0066771683
0.028975256
0.0070487417
0.028722287
0.0074186762
0.0284753
0.0077815628
0.028240921
0.0081461062
0.028005569
0.0084953321
0.027770832
0.0088196285
0.027559814
0.0091122498
0.027355949
0.0093860066
0.027143518
0.0096332618
0.026947983
0.0098307831
0.026761963
0.0099841839
0.026571449
0.010100335
0.02640236
0.010150488
0.026244539
0.010145794
0.026084413
0.010111143
0.02593471
0.0099910901
0.025812287
0.0098185684
0.025694855
0.0096119006
0.025578552
0.0093507169
0.025505531
0.0090312855
0.025443371
0.0086847337
0.025403978
0.0083084004
0.025389402
0.007909115
0.025401513
0.0074935792
0.025427156
0.0070678875
0.025508643
0.0066228282
0.025609796
0.0061890219
0.025728186
0.0057747657
0.025890643
0.0053372359
0.026085948
0.0049080437
0.026300924
0.0045103337
0.02654741
0.0040954437
0.026838018
0.003687729
0.027146478
0.0032989661
0.027483945
0.0029038547
0.027861826
0.0025152232
0.028238376
0.0021463932
0.028637213
0.0017723945
0.029067436
0.0013950463
0.029499556
0.0010420363
0.029928548
0.0007041884
0.030361752
0.00038480961
0.030781523
7.4715818e-05
0.031205943
-0.00020870864
0.031604677
-0.00046158384
0.031975144
-0.00068809178
0.032307507
-0.00081167566
-0.029954634
0.029639567
0.0062122667
0.029345445
0.0065837793
0.029059369
0.0069632441
0.028786403
0.0073217079
0.028522919
0.00768216
0.028260738
0.0080437437
0.02802153
0.0083853141
0.027787412
0.0087294505
0.027575355
0.0090316853
0.027351291
0.0093363142
0.027140613
0.0095966841
0.026947934
0.0098259407
0.026754746
0.010023972
0.026557671
0.010181258
0.026384751
0.010273255
0.026219631
0.010315607
0.026040164
0.010325262
0.025910665
0.010240642
0.025765944
0.010135812
0.025627205
0.0099573068
0.025521081
0.009718025
0.025424659
0.0094471386
0.025346445
0.0091094994
0.025286284
0.0087448946
0.025251121
0.0083435625
0.025240552
0.0079196843
0.025254522
0.0074796088
0.02529864
0.0070237687
0.025372165
0.0065493034
0.025460344
0.0061008426
0.025609102
0.0056260078
0.025774426
0.0051719116
0.025947514
0.004734956
0.026189858
0.0042679887
0.02643843
0.0038468722
0.026718225
0.0034079333
0.027039697
0.0029774939
0.027376773
0.0025667788
0.02772688
0.0021651161
0.028113226
0.0017600475
0.028519581
0.0013660386
0.028917187
0.00099744095
0.02933941
0.00061981175
0.0297563
0.00028729929
0.030187045
-4.5936236e-05
0.030600669
-0.00033890781
0.030993254
-0.00060129449
0.031370613
-0.00083894304
0.0317185
-0.001035979
0.032034064
-0.0011272406
-0.029790855
0.029476167
0.0065269553
0.029161975
0.0068979713
0.028878866
0.0072463527
0.028605088
0.0075954858
0.028332416
0.0079548327
0.028076725
0.0082994341
0.027827485
0.0086345545
0.027601725
0.0089552107
0.02736568
0.0092677302
0.027154613
0.0095473805
0.026941778
0.0098095194
0.02674263
0.010025088
0.026548481
0.010218121
0.026381673
0.010348066
0.026197946
0.010456982
0.026025114
0.01048844
0.02587535
0.010475025
0.025723901
0.010392091
0.025586268
0.010273445
0.025470211
0.010073363
0.025347365
0.0098408701
0.025264848
0.0095296555
0.025190959
0.0091833882
0.025139598
0.0087962549
0.025105953
0.0083772076
0.025096858
0.0079287787
0.025117955
0.007458511
0.025164741
0.0069769826
0.02522614
0.0064879033
0.025343682
0.0059833011
0.025465386
0.0055043028
0.025633136
0.0050041613
0.025831737
0.0045363549
0.026049202
0.0040505241
0.026310011
0.0035860622
0.026600449
0.003117495
0.026894637
0.0026833057
0.027227207
0.0022342089
0.02758479
0.0018075329
0.027963282
0.0013815543
0.028347551
0.00098177052
0.02875895
0.00058604027
0.029154734
0.00022402856
0.029567149
-0.00012511756
0.029966369
-0.0004451561
0.030359774
-0.00073231415
0.030728614
-0.00097013446
0.031070264
-0.0011805938
0.031404582
-0.0013702976
0.031689355
-0.0014120133
-0.0296743
0.029330525
0.0068707307
0.029018703
0.0072097932
0.028718291
0.0075467644
0.028427336
0.0078864414
0.028164422
0.0082177462
0.027904626
0.0085592303