/*--------------------------------*- C++ -*----------------------------------*\
  =========                 |
  \\      /  F ield         | OpenFOAM: The Open Source CFD Toolbox
   \\    /   O peration     | Website:  https://openfoam.org
    \\  /    A nd           | Version:  8
     \\/     M anipulation  |
\*---------------------------------------------------------------------------*/
FoamFile
{
    version     2.0;
    format      ascii;
    class       volVectorField;
    location    "350";
    object      U;
}
// * * * * * * * * * * * * * * * * * * * * * * * * * * * * * * * * * * * * * //

dimensions      [0 1 -1 0 0 0 0];

internalField   nonuniform List<vector> 
17000
(
(0.33935254 -0.33092303 2.3366119e-18)
(0.34341658 -0.31961046 -2.4771675e-18)
(0.34671977 -0.30642891 -1.2509259e-18)
(0.3478078 -0.29094649 -2.2772279e-18)
(0.34667203 -0.27373595 9.4457065e-19)
(0.34332755 -0.25523488 3.1017883e-18)
(0.33796862 -0.23594885 -8.7440208e-19)
(0.33080703 -0.21631073 9.508951e-20)
(0.32201799 -0.19663628 7.0519336e-20)
(0.31176837 -0.17723234 -7.6331195e-19)
(0.3004685 -0.1584984 -1.2923369e-18)
(0.28815537 -0.14058447 -1.3642529e-19)
(0.27519257 -0.12370192 1.2225255e-20)
(0.2616377 -0.10789926 6.7682224e-19)
(0.2477671 -0.093292229 1.4786026e-18)
(0.23372035 -0.079853719 -1.0140727e-18)
(0.21952304 -0.067538457 -5.5651523e-19)
(0.20545059 -0.05642114 8.0134332e-22)
(0.19161566 -0.046468967 1.7626164e-19)
(0.17801526 -0.037684937 5.6167969e-19)
(0.16451911 -0.030340744 4.0379588e-20)
(0.15062746 -0.025508931 -3.007008e-20)
(0.13888026 -0.020179616 0)
(0.12692974 -0.01316852 -2.9573932e-20)
(0.11513997 -0.0076563037 -1.7337418e-21)
(0.10416569 -0.0036923 1.9715316e-19)
(0.093829015 -0.00068833824 9.6798616e-20)
(0.084052348 0.0016821513 6.889236e-20)
(0.074786709 0.0034618778 -6.8640299e-20)
(0.066009289 0.0046989656 -2.6444359e-19)
(0.05774386 0.0055473207 4.5873203e-22)
(0.050061588 0.0060098639 -6.6543246e-20)
(0.042932421 0.0061514204 1.6912371e-21)
(0.036347306 0.0059662401 2.4886611e-19)
(0.030261161 0.0055006318 -3.15575e-19)
(0.024647987 0.0048271291 -2.6140313e-19)
(0.019547418 0.0039780728 3.6682103e-19)
(0.014943626 0.0029813918 -3.6218729e-21)
(0.010803993 0.0018450214 3.7249972e-21)
(0.0070920512 0.00062490726 5.9221035e-19)
(0.0037304642 -0.00063373517 -3.6132733e-20)
(0.00074036036 -0.0019979349 -4.4960362e-19)
(-0.0018522364 -0.0035668491 -1.1718555e-19)
(-0.0042017021 -0.0053221715 1.2692184e-19)
(-0.0064640946 -0.0072086043 3.5865047e-19)
(-0.0086327324 -0.0092326957 -1.4099026e-19)
(-0.010669549 -0.011460071 -2.4467161e-19)
(-0.012588561 -0.013902632 3.6741974e-19)
(-0.014386071 -0.01647959 -2.7156138e-19)
(-0.016074232 -0.01918129 -3.8875793e-19)
(0.67111361 -0.6172367 2.1707068e-18)
(0.68552383 -0.60769664 8.5968513e-19)
(0.69932161 -0.59545168 -1.8110771e-18)
(0.71184352 -0.58029051 -8.8862383e-19)
(0.72199866 -0.56160031 -2.2101014e-19)
(0.72927807 -0.53929795 -3.911838e-21)
(0.73329011 -0.51399089 -1.3372467e-18)
(0.73374729 -0.48596573 -2.2964194e-20)
(0.73051303 -0.45559962 1.866534e-18)
(0.72355535 -0.42344527 4.2338393e-19)
(0.7129748 -0.39017925 -1.9965138e-19)
(0.69899877 -0.35643415 -7.4768096e-19)
(0.68173576 -0.32266073 6.0527171e-19)
(0.66150233 -0.28930493 -2.8906643e-19)
(0.63871472 -0.25689406 2.834037e-19)
(0.61371183 -0.22572216 -1.0628556e-20)
(0.58681461 -0.1960707 -5.4958672e-19)
(0.55850826 -0.16821658 -2.7088553e-19)
(0.52918899 -0.14229553 -2.8838675e-21)
(0.4992678 -0.11847296 2.4761891e-19)
(0.46897253 -0.096829983 7.4181703e-19)
(0.43854535 -0.077619817 2.2019456e-22)
(0.40857287 -0.06052149 -2.3641695e-19)
(0.37907341 -0.044998503 -1.6880308e-19)
(0.3501427 -0.031404666 2.1417066e-19)
(0.32200889 -0.019883739 2.9565297e-20)
(0.29484807 -0.010194331 1.6791721e-19)
(0.26883722 -0.0021859798 -3.9691802e-19)
(0.24394011 0.0042616682 -2.2428526e-19)
(0.22025266 0.0094144902 4.0827855e-21)
(0.1978021 0.013308488 -8.5850548e-20)
(0.176597 0.016119348 6.0678563e-21)
(0.15671606 0.01798075 0)
(0.13813181 0.018727671 2.9264574e-19)
(0.12084324 0.018684819 2.8989623e-19)
(0.10480924 0.018149176 1.2154872e-19)
(0.090019329 0.017041897 1.1094399e-19)
(0.076454335 0.015446269 -2.8276329e-19)
(0.064073074 0.01341459 9.4288835e-20)
(0.052800891 0.011012402 2.2451421e-19)
(0.042589401 0.0082592589 -4.5768482e-19)
(0.033339323 0.0051516014 5.4775043e-21)
(0.024992825 0.0016638121 3.2111502e-19)
(0.017493652 -0.0021931043 -3.8413541e-20)
(0.010770416 -0.0064260634 1.1167728e-19)
(0.0047302466 -0.011000575 -1.6305932e-19)
(-0.00075960863 -0.01582162 -9.0795582e-20)
(-0.005801124 -0.020728554 2.1860676e-19)
(-0.010403891 -0.025488927 3.1267766e-19)
(-0.014522618 -0.029967542 8.2809757e-21)
(0.80602811 -0.68032506 1.5973368e-18)
(0.82940319 -0.6780888 2.2883708e-20)
(0.85195326 -0.6738761 -1.4315786e-18)
(0.8735892 -0.66730288 -1.3549458e-19)
(0.89370995 -0.65795238 7.1887005e-19)
(0.91179267 -0.64551341 1.2793914e-20)
(0.92729972 -0.62975826 -8.1274872e-19)
(0.93986146 -0.6103742 6.0571804e-20)
(0.94907396 -0.58737569 -9.9088433e-21)
(0.95448792 -0.56046035 -1.9092808e-18)
(0.9557275 -0.52989239 -2.8941792e-19)
(0.95243799 -0.4968444 -1.4356059e-18)
(0.94444743 -0.46186623 -2.8822499e-20)
(0.93173236 -0.42544919 1.2919925e-18)
(0.91445307 -0.38814653 5.6097778e-19)
(0.89293479 -0.35062687 1.0775449e-19)
(0.86748249 -0.3134155 1.3240192e-20)
(0.83842352 -0.27698825 -8.3588476e-19)
(0.80639538 -0.24189903 -2.4575157e-19)
(0.77185722 -0.20850668 -1.989692e-19)
(0.73527689 -0.17714224 -2.40244e-21)
(0.69735174 -0.14812967 1.3037828e-19)
(0.65851303 -0.12153675 2.8419863e-20)
(0.61919111 -0.097379796 -3.4511125e-19)
(0.57972705 -0.07568933 2.3250034e-19)
(0.54038737 -0.056484357 1.4111057e-21)
(0.50162376 -0.039776692 -2.0307631e-19)
(0.46380292 -0.025464494 -1.8840762e-19)
(0.42710333 -0.01340387 8.3655539e-20)
(0.39170868 -0.0034133785 0)
(0.35778208 0.0046737298 1.6078613e-19)
(0.32536646 0.011017844 -2.3204992e-19)
(0.29460342 0.01574944 1.4558352e-19)
(0.26554904 0.019051535 5.0957601e-19)
(0.23820193 0.021184869 -1.2602155e-19)
(0.21262209 0.022311933 -1.1593275e-19)
(0.18877321 0.02230851 0)
(0.16664193 0.02154553 -4.8259764e-20)
(0.14617768 0.020039782 -3.1476811e-20)
(0.12737071 0.017872218 2.2874551e-21)
(0.11016317 0.015062695 3.3566611e-21)
(0.094509483 0.011645766 2.6143551e-19)
(0.080335433 0.0076452984 1.6460632e-19)
(0.067585939 0.0031212011 -1.6444198e-19)
(0.056172219 -0.0018344158 -2.4223512e-19)
(0.04597051 -0.0070872961 1.7273259e-21)
(0.036863859 -0.012444948 9.6424372e-20)
(0.028652552 -0.017674058 -8.0920971e-20)
(0.021291842 -0.022359818 -1.3968277e-21)
(0.015094286 -0.025963128 -7.80738e-20)
(0.8524994 -0.6585613 3.6343153e-18)
(0.87953522 -0.66429471 -4.7563228e-19)
(0.90628092 -0.66751448 -7.0250331e-19)
(0.93301749 -0.66701121 -2.5135081e-19)
(0.95891762 -0.66423888 -6.3705988e-19)
(0.98384483 -0.65934298 7.4902946e-19)
(1.0071158 -0.65108721 5.7211103e-19)
(1.0285954 -0.63990602 8.7754095e-19)
(1.0477713 -0.62570956 1.2241247e-18)
(1.0640628 -0.60819604 -1.1690405e-18)
(1.0770046 -0.58701119 -6.6074902e-19)
(1.0860283 -0.56219338 2.7852037e-20)
(1.0905934 -0.5340102 -1.9768716e-18)
(1.0903598 -0.50292582 -2.4022546e-19)
(1.0850504 -0.46941207 5.5393524e-19)
(1.0745462 -0.43402518 4.7351344e-19)
(1.0588757 -0.39735738 1.1310433e-18)
(1.038173 -0.36001044 -2.9508555e-21)
(1.0127573 -0.32263916 3.0985703e-19)
(0.98295654 -0.28572985 6.0036024e-21)
(0.9493655 -0.24995429 -7.6469846e-19)
(0.91258047 -0.21576986 4.097846e-21)
(0.87314234 -0.18346227 3.7194621e-19)
(0.83163291 -0.15333023 3.1636472e-19)
(0.78869026 -0.12559951 4.5755454e-20)
(0.74472352 -0.10039444 2.1106737e-19)
(0.70029308 -0.077837637 2.78246e-21)
(0.65596687 -0.057943139 4.1784122e-19)
(0.61200523 -0.040596592 4.9493447e-21)
(0.56882962 -0.02572641 4.4692146e-19)
(0.5267765 -0.013186805 -3.6304864e-19)
(0.48608185 -0.0028022076 4.5232613e-21)
(0.4469225 0.0055539455 3.8277782e-19)
(0.40946567 0.012092633 -2.0342591e-19)
(0.37382384 0.017003565 -3.9721441e-19)
(0.34009709 0.020461368 2.0606513e-19)
(0.30828023 0.022618831 9.9093933e-20)
(0.27842315 0.023688852 2.2968729e-21)
(0.25055067 0.023607989 9.410448e-20)
(0.2246517 0.022664677 -3.957101e-19)
(0.20073766 0.020812185 -1.1554255e-19)
(0.1788093 0.018162281 1.3056613e-19)
(0.15880842 0.014796657 2.6112774e-20)
(0.14070616 0.010835217 -1.4320331e-20)
(0.12440708 0.0064509619 0)
(0.10979343 0.001857954 1.12227e-20)
(0.096655355 -0.0026956178 -4.9143483e-20)
(0.084690327 -0.0069650985 -9.8154601e-20)
(0.07398559 -0.010336855 1.3284118e-21)
(0.065016981 -0.011785348 4.3405449e-20)
(0.87043806 -0.60874306 1.5846026e-18)
(0.89783049 -0.61914788 8.9248717e-20)
(0.92506687 -0.62788198 1.0858519e-18)
(0.9519772 -0.63408192 1.502982e-19)
(0.97923344 -0.63746276 -1.1191439e-18)
(1.0063642 -0.63820265 0)
(1.032877 -0.63630385 6.70684e-19)
(1.0585833 -0.63127475 6.320005e-21)
(1.0832081 -0.62340828 -8.0453851e-20)
(1.1062642 -0.61227456 1.0508903e-18)
(1.1271639 -0.59795059 1.1039091e-20)
(1.1452275 -0.58040066 3.2991166e-19)
(1.15985 -0.55961508 -4.1535974e-19)
(1.1705065 -0.53565915 8.5234127e-21)
(1.1767252 -0.50867472 -2.684075e-19)
(1.1780989 -0.4789608 3.7763277e-20)
(1.1742896 -0.44692733 1.3513623e-19)
(1.1651274 -0.41308266 7.7096517e-19)
(1.1505516 -0.37800457 2.1635831e-19)
(1.1306601 -0.34224594 9.5531272e-19)
(1.1057648 -0.30643968 -4.7142233e-19)
(1.0762119 -0.27114047 3.1063925e-19)
(1.0424718 -0.23679059 -4.2953254e-19)
(1.0051794 -0.20391935 5.846157e-19)
(0.96493805 -0.17291246 0)
(0.92229303 -0.14402502 0)
(0.87789682 -0.11751491 3.6093888e-19)
(0.83231923 -0.093503166 -3.8413991e-21)
(0.78615446 -0.072029825 6.5674036e-19)
(0.73985551 -0.053083333 -3.6848489e-19)
(0.69378435 -0.036582498 -1.3147947e-19)
(0.648453 -0.022428349 2.0121969e-19)
(0.60405199 -0.010484814 4.6463643e-21)
(0.56097635 -0.00060890774 -8.9639123e-20)
(0.51945034 0.0073860571 1.4866079e-19)
(0.47962348 0.013657574 6.4710445e-20)
(0.44163885 0.018377586 0)
(0.40556937 0.021688867 -1.8283439e-21)
(0.37149729 0.023738394 -4.4688111e-19)
(0.33950578 0.024674 -6.3301876e-20)
(0.30965769 0.024469105 3.0454643e-19)
(0.28200898 0.023413735 6.0006625e-20)
(0.25654036 0.021542919 -2.8904578e-20)
(0.23321612 0.019037407 2.2608451e-21)
(0.21201648 0.016127992 7.656971e-20)
(0.1927739 0.013066859 -1.0717039e-20)
(0.17524865 0.0101263 -1.2693161e-20)
(0.15906832 0.0075448828 -2.318999e-21)
(0.14428655 0.0059811064 -2.0093889e-21)
(0.13226833 0.0073600816 3.7410198e-21)
(0.87895358 -0.55808689 9.5296672e-19)
(0.90422751 -0.56999059 -7.2617052e-19)
(0.92983934 -0.58029901 -5.1444292e-19)
(0.95577266 -0.58874948 -5.1099585e-19)
(0.98252921 -0.59552307 -1.2331257e-19)
(1.0099019 -0.60038627 0)
(1.0374997 -0.60303753 1.399359e-19)
(1.0649665 -0.60318261 6.0954647e-19)
(1.0918249 -0.60061918 -5.9383127e-19)
(1.1177088 -0.5951505 -3.9442947e-19)
(1.1422442 -0.58657055 -7.1005353e-21)
(1.1651141 -0.57469457 1.0297852e-18)
(1.1859115 -0.55951858 3.0393251e-20)
(1.2039523 -0.54131911 -1.3966834e-18)
(1.2185543 -0.52024798 5.3861504e-19)
(1.2291501 -0.49642224 7.8076081e-19)
(1.2353462 -0.4699653 -5.3285717e-19)
(1.2367277 -0.44113831 1.196293e-20)
(1.232981 -0.4103276 -5.5452275e-19)
(1.2239149 -0.37804583 5.0453463e-19)
(1.209506 -0.34481741 2.6168529e-19)
(1.1898346 -0.31117644 5.2434566e-19)
(1.1652245 -0.27766797 7.7416554e-21)
(1.1360193 -0.24478587 -3.0742487e-19)
(1.1027117 -0.21300757 0)
(1.0657581 -0.18267754 0)
(1.025841 -0.1542057 -1.883597e-19)
(0.98354645 -0.12781088 -2.9438691e-19)
(0.93951186 -0.10367068 2.4895908e-19)
(0.89429194 -0.081843061 -3.5989091e-19)
(0.84831898 -0.06233715 2.2243921e-19)
(0.80222573 -0.045159271 2.3714447e-19)
(0.75627436 -0.030170613 3.6338567e-19)
(0.71094913 -0.017306748 -9.3899736e-20)
(0.66648087 -0.0063960832 3.8561206e-22)
(0.62316767 0.0026799601 -7.4962935e-20)
(0.58131871 0.01007042 3.6046133e-23)
(0.54108413 0.015923937 -2.3864024e-19)
(0.50261618 0.020370809 6.2346795e-20)
(0.46606754 0.023535776 2.9107481e-19)
(0.43159521 0.025577202 -8.8654408e-20)
(0.39927137 0.026640546 3.3375411e-20)
(0.36911037 0.026804388 7.0962407e-21)
(0.34117683 0.02638308 8.6910724e-20)
(0.31543286 0.025562199 -1.9495764e-20)
(0.29170646 0.024598508 -3.5767611e-20)
(0.26981378 0.023767529 -2.1028967e-20)
(0.24932754 0.023289318 8.9369289e-21)
(0.23037426 0.023932731 3.4366898e-20)
(0.21468433 0.028241538 0)
(0.885902 -0.51302388 1.0967097e-18)
(0.9085412 -0.52562922 9.5873224e-20)
(0.93169078 -0.53672051 2.0707464e-19)
(0.9553489 -0.54610431 6.3966631e-19)
(0.98011767 -0.55414891 -8.4989915e-19)
(1.0059403 -0.56078164 4.0314875e-19)
(1.0325263 -0.56571141 2.5841633e-20)
(1.0596103 -0.56867529 -2.4895337e-19)
(1.0869261 -0.56944893 1.7820668e-19)
(1.114123 -0.56780711 -5.7605417e-21)
(1.1408017 -0.56349889 1.151645e-20)
(1.1665129 -0.55633234 -3.1729628e-19)
(1.1905064 -0.54621584 1.0981186e-18)
(1.2124067 -0.53296672 -5.1456197e-19)
(1.23191 -0.51657836 -2.0757058e-18)
(1.2486864 -0.49725999 4.3261781e-19)
(1.2620407 -0.47544394 6.7379145e-19)
(1.2713991 -0.45132245 -2.8775735e-19)
(1.2763361 -0.425058 -5.6120107e-19)
(1.2765476 -0.39693056 7.079763e-19)
(1.2717808 -0.36730989 3.4028295e-19)
(1.2618937 -0.33664817 -9.634565e-20)
(1.2469403 -0.30546225 7.2667013e-19)
(1.227053 -0.27424537 5.1925288e-19)
(1.2025114 -0.24347838 4.555843e-19)
(1.1736716 -0.2135524 2.0073692e-20)
(1.1410185 -0.18486253 4.2901928e-19)
(1.1050453 -0.15769604 1.9652721e-20)
(1.0663036 -0.13230961 -3.5651211e-19)
(1.0254545 -0.10889581 5.7177243e-19)
(0.98295205 -0.087515635 6.6827663e-20)
(0.93935843 -0.068236614 1.0952559e-19)
(0.89509978 -0.050992596 -2.5553287e-19)
(0.85064819 -0.03576272 1.7056433e-20)
(0.80635283 -0.022434468 -9.7300994e-20)
(0.76255082 -0.010907643 8.6851591e-20)
(0.71958834 -0.0010670302 3.9916992e-22)
(0.67765297 0.0072399904 -6.8702834e-20)
(0.63699047 0.014123677 1.7455808e-19)
(0.59785839 0.019712321 -1.2501892e-19)
(0.56047502 0.024149432 3.4568408e-20)
(0.52496561 0.0275765 6.4046665e-20)
(0.49143103 0.0301918 -2.5116646e-20)
(0.45992936 0.032188163 1.246757e-20)
(0.43046776 0.033780934 -6.2771411e-20)
(0.40293934 0.035217561 1.6886222e-21)
(0.37713702 0.036743546 2.0612035e-20)
(0.35259577 0.038515191 1.1121183e-20)
(0.32934578 0.041292549 0)
(0.31019161 0.048987951 -5.6196873e-19)
(0.89250495 -0.47349951 7.3210507e-19)
(0.91275801 -0.48634356 2.4116757e-19)
(0.93359696 -0.49779337 -8.1019765e-19)
(0.95496489 -0.50767746 1.0553255e-18)
(0.97752261 -0.51642646 8.4834481e-19)
(1.0012768 -0.52397048 0)
(1.0260224 -0.53005825 2.390552e-19)
(1.0515853 -0.53449461 0)
(1.0777987 -0.53714251 -4.8194856e-21)
(1.1044421 -0.53781367 0)
(1.1312245 -0.53625812 -1.9672255e-19)
(1.1577723 -0.53224306 5.7068661e-19)
(1.1835558 -0.52562076 -2.0487726e-19)
(1.2081028 -0.51622519 7.084916e-19)
(1.2309441 -0.50396772 -7.3106392e-19)
(1.2512216 -0.48896469 -1.4455034e-18)
(1.268798 -0.47108841 1.93783e-19)
(1.2834071 -0.45058032 -2.8194765e-19)
(1.2945904 -0.42798986 -4.5243864e-19)
(1.3017784 -0.40361645 -3.077612e-19)
(1.3046247 -0.37761921 2.1043077e-19)
(1.3029265 -0.35027365 1.6002715e-20)
(1.2965289 -0.32196988 -1.5200142e-19)
(1.2853861 -0.29317502 1.3697353e-19)
(1.2695624 -0.26435899 7.4342345e-20)
(1.2492588 -0.23588166 -5.6489885e-21)
(1.2247988 -0.20812438 2.1847576e-19)
(1.196555 -0.1814104 7.5107835e-21)
(1.1649699 -0.15601916 -3.8162276e-19)
(1.1305339 -0.13215407 -5.5693975e-19)
(1.0936884 -0.10993296 -4.5787032e-20)
(1.0550222 -0.08950589 -3.1957156e-19)
(1.0149465 -0.070861743 -4.0199519e-19)
(0.97394971 -0.054014126 1.2116731e-19)
(0.93236508 -0.038886341 2.3810885e-21)
(0.89062533 -0.025428054 -6.8059489e-20)
(0.84902586 -0.013535816 -4.1779673e-19)
(0.80789466 -0.003101829 7.9496102e-20)
(0.76750155 0.0059901331 -4.0046674e-20)
(0.72806913 0.013869288 -6.1526961e-20)
(0.68984099 0.020667357 2.3091847e-19)
(0.65301093 0.026537767 -2.8576274e-20)
(0.61773152 0.031648013 4.0527531e-20)
(0.58411493 0.03617942 -1.0299619e-19)
(0.55223128 0.040322066 3.4338289e-21)
(0.52201339 0.044292009 1.061495e-20)
(0.49333165 0.04830392 8.288256e-20)
(0.4658099 0.052469247 -4.3306341e-20)
(0.43928938 0.057488366 -6.9506168e-20)
(0.41744301 0.068585464 -1.5409116e-19)
(0.89889189 -0.43882665 -1.205531e-18)
(0.91705822 -0.45170404 -2.6115229e-20)
(0.9358362 -0.4633041 2.3669901e-20)
(0.95516099 -0.47346239 -1.8864174e-20)
(0.97570334 -0.48265055 6.652001e-19)
(0.99749052 -0.49079949 0)
(1.0203501 -0.49766644 0)
(1.0441488 -0.50304925 5.5843145e-19)
(1.0687665 -0.50679839 -2.7441605e-19)
(1.0940632 -0.50878128 -3.9826526e-20)
(1.1198464 -0.50884987 2.1037488e-20)
(1.1458426 -0.50684181 -4.6404283e-19)
(1.1717236 -0.50259529 4.5559937e-19)
(1.1970588 -0.49591763 -2.2150814e-19)
(1.2214121 -0.48666575 7.185225e-19)
(1.2441418 -0.47484633 -1.9208559e-19)
(1.2649165 -0.46034168 -2.7403723e-19)
(1.2829457 -0.44346401 -2.8439563e-19)
(1.2979501 -0.42414354 3.2744401e-22)
(1.3097396 -0.40266063 -1.327719e-18)
(1.3182439 -0.37957924 -3.2785886e-19)
(1.3227074 -0.35523945 -1.0500502e-19)
(1.3230035 -0.32978275 1.5312985e-19)
(1.3190955 -0.30355162 -5.5194954e-19)
(1.3108715 -0.27701167 -5.3056559e-19)
(1.2983417 -0.25045371 0)
(1.2817035 -0.22422623 -4.8084429e-19)
(1.2612106 -0.19865693 0)
(1.2371684 -0.17402248 -1.973463e-19)
(1.2099274 -0.15053274 -3.7975332e-19)
(1.179908 -0.12835094 3.2946723e-20)
(1.1475055 -0.10758196 1.5608545e-21)
(1.1131667 -0.088302097 1.5061191e-19)
(1.0772935 -0.070534273 -1.1649128e-19)
(1.0402966 -0.054265152 7.7654589e-20)
(1.0025394 -0.039451061 -1.9519194e-19)
(0.96432747 -0.026012862 5.2775675e-20)
(0.92604034 -0.013875484 2.3783562e-19)
(0.8878786 -0.0029177791 -3.3410917e-20)
(0.85015637 0.0069605579 -1.0013187e-19)
(0.81311162 0.015892081 -1.0885174e-19)
(0.77695684 0.024014864 -1.3422463e-20)
(0.74180791 0.031486966 4.8246775e-20)
(0.70785985 0.038469203 -9.5078276e-20)
(0.67514613 0.045139184 7.7373165e-20)
(0.64367752 0.051672034 -6.7186736e-20)
(0.6134651 0.058262826 3.4688949e-20)
(0.58419022 0.065001217 1.2908886e-19)
(0.55553652 0.07245478 3.247518e-20)
(0.53242669 0.087164149 -1.2126524e-19)
(0.90502495 -0.40822262 -1.3243532e-18)
(0.92138937 -0.42102555 -7.0612275e-19)
(0.93835945 -0.43263884 -5.1264873e-19)
(0.95588137 -0.44293794 3.2623375e-19)
(0.97463258 -0.45240362 5.8339377e-19)
(0.99464599 -0.46096442 0)
(1.0157745 -0.46838043 -5.572474e-19)
(1.0378977 -0.47445313 5.2413937e-19)
(1.0609286 -0.47904229 1.4824711e-18)
(1.0847504 -0.48200592 -8.0010382e-19)
(1.1092107 -0.48319527 5.9342497e-20)
(1.1341001 -0.48246395 2.4787351e-19)
(1.1591764 -0.4797058 1.9824674e-19)
(1.1841523 -0.47481894 -2.1403448e-19)
(1.2086885 -0.46767718 -2.0949441e-19)
(1.2322782 -0.45820674 1.7974911e-19)
(1.2545537 -0.44630308 9.0607986e-20)
(1.2748756 -0.43208115 6.7325455e-19)
(1.2928997 -0.41554964 -1.4292453e-19)
(1.3080407 -0.39701361 -2.7865458e-19)
(1.3199977 -0.37657569 -4.2743558e-20)
(1.3286353 -0.35453988 -5.7706286e-19)
(1.3344214 -0.33146267 0)
(1.3354713 -0.30762117 0)
(1.3333164 -0.28326336 0)
(1.3272623 -0.25866688 -2.688246e-19)
(1.3173765 -0.23416254 0)
(1.3038163 -0.21004944 2.1841241e-20)
(1.2867727 -0.186572 -2.237634e-19)
(1.2665122 -0.16393029 6.1509373e-19)
(1.2433537 -0.14230337 1.9098051e-19)
(1.2176111 -0.12179029 0)
(1.1896447 -0.1024786 -1.7829955e-19)
(1.1597592 -0.084381989 2.8038883e-21)
(1.1283729 -0.067535702 -2.7332527e-19)
(1.0957565 -0.051894211 2.4458628e-19)
(1.0622732 -0.037421024 2.2739696e-19)
(1.0282127 -0.024034759 0)
(0.9938243 -0.011636922 -3.1968237e-20)
(0.95936611 -0.00013495588 1.5491864e-19)
(0.92507995 0.010593675 -2.1098364e-19)
(0.89115096 0.020674811 1.4607852e-19)
(0.85773365 0.030249889 1.3988234e-19)
(0.82499961 0.039451559 5.627697e-20)
(0.79303292 0.048444367 3.21485e-21)
(0.76185698 0.057385125 8.1759623e-23)
(0.73148623 0.066444241 -1.597386e-19)
(0.70169926 0.075699122 -3.2007114e-21)
(0.67188255 0.085464127 5.91201e-20)
(0.64801603 0.10320571 0)
(0.91087344 -0.38104259 0)
(0.92567585 -0.39369215 -5.4956298e-19)
(0.94106566 -0.40523219 3.2956561e-19)
(0.95700319 -0.41557398 3.2139746e-19)
(0.97416428 -0.42520279 -5.1205668e-19)
(0.99259739 -0.43404747 0)
(1.0121606 -0.44186222 0)
(1.0327559 -0.44845516 -6.8925887e-19)
(1.0543085 -0.45369017 6.903532e-19)
(1.0767219 -0.45742457 4.8761e-19)
(1.0998614 -0.45950691 -4.6117524e-19)
(1.1235516 -0.45979226 1.644632e-19)
(1.1475848 -0.45816401 2.0262892e-19)
(1.171722 -0.45452417 -2.3416484e-21)
(1.1956876 -0.44879081 -8.7474357e-19)
(1.2191678 -0.44095369 6.1167069e-21)
(1.2418056 -0.43093436 -2.3343288e-19)
(1.2630889 -0.41875969 2.3364682e-19)
(1.2826716 -0.40442772 -2.4844421e-21)
(1.3000307 -0.38812682 7.2308435e-19)
(1.3148311 -0.36995919 -2.1416615e-19)
(1.3266303 -0.35029657 0)
(1.3352903 -0.32934646 0)
(1.3407629 -0.30737007 -2.8793518e-19)
(1.3430677 -0.28484861 5.624533e-20)
(1.3418761 -0.26204391 4.9913977e-21)
(1.3373283 -0.23921076 -3.3320182e-20)
(1.3294897 -0.21660457 -4.7274869e-19)
(1.3184198 -0.19441864 -2.3767246e-19)
(1.3043118 -0.17284001 -1.0019822e-20)
(1.28739 -0.15202769 0)
(1.2679077 -0.13209512 3.0675973e-21)
(1.2461271 -0.11311694 6.1770167e-21)
(1.2223372 -0.095126175 1.6095843e-19)
(1.1968326 -0.07813919 5.3939403e-21)
(1.1698561 -0.062117693 -1.3853751e-19)
(1.1416799 -0.04703281 4.4784981e-21)
(1.1126146 -0.03282403 8.1298064e-21)
(1.0828503 -0.019397599 -2.11103e-19)
(1.0526147 -0.0066675217 9.1564469e-20)
(1.0221435 0.0054709503 1.8142447e-19)
(0.99158638 0.01713761 -6.1327658e-21)
(0.96108983 0.028450216 -8.1610292e-20)
(0.9307562 0.039535291 1.6121226e-19)
(0.90072966 0.050513622 0)
(0.87100526 0.061530254 1.4513989e-19)
(0.84160545 0.072710097 1.3028702e-20)
(0.81237085 0.084099575 -2.9235835e-19)
(0.78253378 0.095797479 6.3338374e-20)
(0.7582884 0.11542167 -7.2199398e-19)
(0.91642479 -0.35676782 -5.0172595e-20)
(0.92986588 -0.36921239 5.2985705e-19)
(0.94387373 -0.38062102 3.9255906e-19)
(0.95841369 -0.39093072 -4.3068163e-19)
(0.97416476 -0.40063628 -4.5063421e-19)
(0.99118596 -0.40966453 0)
(1.0093419 -0.41776278 0)
(1.028545 -0.42475592 0)
(1.0487429 -0.43049852 2.1509153e-19)
(1.06985 -0.43484822 2.6124703e-19)
(1.0917446 -0.43765439 -4.1924123e-19)
(1.1142689 -0.43877172 -1.1829717e-19)
(1.1372397 -0.43807768 3.8991691e-19)
(1.1604439 -0.43546626 7.4693553e-19)
(1.1836373 -0.43086062 -3.2323513e-19)
(1.2065448 -0.42422237 -6.6419779e-19)
(1.2288807 -0.41553804 3.8538145e-19)
(1.2502945 -0.40485545 -2.0747908e-19)
(1.2704377 -0.392192 -1.2034606e-19)
(1.2888839 -0.3776552 3.056003e-19)
(1.3052916 -0.36134175 0)
(1.3192572 -0.34351475 -2.8790143e-19)
(1.3305503 -0.32439823 -2.09615e-19)
(1.3389232 -0.30435326 5.7358496e-21)
(1.3442207 -0.28344817 -5.5909928e-20)
(1.3468536 -0.26211987 2.6959829e-19)
(1.3460736 -0.24068073 -1.9074952e-19)
(1.3428348 -0.21941137 -4.4106832e-19)
(1.3365555 -0.19848763 -3.8015798e-20)
(1.3275059 -0.17800814 -2.8237987e-20)
(1.3158714 -0.15810173 0)
(1.3018353 -0.13888436 0)
(1.2856026 -0.12043526 3.6347744e-19)
(1.2673891 -0.10278304 -3.4588237e-19)
(1.2474329 -0.085931927 3.0944521e-19)
(1.2259266 -0.069844866 -1.431085e-19)
(1.2031044 -0.054493094 2.7521161e-19)
(1.1791569 -0.039807005 -1.3260225e-19)
(1.1542979 -0.025710787 1.1745002e-19)
(1.128693 -0.012122407 7.4303305e-21)
(1.1025346 0.0010452069 1.0511197e-19)
(1.0759287 0.013908917 -3.9854155e-19)
(1.0490131 0.026560197 8.4112189e-21)
(1.0218744 0.039111033 -1.9270432e-19)
(0.9945544 0.051657035 1.8842696e-19)
(0.96712739 0.064300024 0)
(0.93957786 0.077129593 -8.6874193e-21)
(0.91177008 0.09017428 1.8744048e-19)
(0.8829929 0.10330811 1.9351905e-19)
(0.85913675 0.12405939 -3.9705643e-19)
(0.92167725 -0.33497793 -6.7408195e-19)
(0.93392607 -0.34718623 -4.4537593e-19)
(0.94671878 -0.35842021 7.8513323e-19)
(0.96002374 -0.36864171 9.0107206e-20)
(0.97452142 -0.37835851 -3.9681524e-19)
(0.99027546 -0.38748761 0)
(1.0071605 -0.3957858 0)
(1.0251037 -0.40307761 0)
(1.044061 -0.40922378 0)
(1.0639646 -0.41407478 -6.1027556e-21)
(1.0847003 -0.41747531 3.7199211e-19)
(1.1061254 -0.41928299 1.6247522e-20)
(1.1280752 -0.419372 -3.6179337e-19)
(1.1503499 -0.41763034 5.2262786e-19)
(1.172729 -0.41397494 9.4279275e-19)
(1.1949549 -0.40835496 -1.4597501e-19)
(1.2167616 -0.40075617 -3.7370606e-19)
(1.2378704 -0.3912094 -1.1866113e-19)
(1.257984 -0.37978115 5.0801108e-19)
(1.2767731 -0.36658807 -1.1061207e-19)
(1.2939188 -0.35172486 9.91098e-20)
(1.3090778 -0.33540159 -1.8653893e-19)
(1.3220117 -0.31779867 -3.5432719e-19)
(1.3324675 -0.29920333 2.1147312e-19)
(1.3403029 -0.27978273 -2.8192112e-19)
(1.3453698 -0.25990349 -2.281769e-19)
(1.3478502 -0.23976971 8.3585771e-20)
(1.3473447 -0.21953287 5.1578117e-19)
(1.3449303 -0.1996676 1.9253961e-19)
(1.3399086 -0.18022133 -2.4936865e-19)
(1.3325114 -0.16122076 -2.2010819e-19)
(1.3229413 -0.14274963 -2.0724527e-19)
(1.3113587 -0.12489007 -1.82239e-19)
(1.2979282 -0.10768075 -1.7506759e-19)
(1.2828204 -0.091109212 3.3969271e-19)
(1.2662102 -0.075144949 3.1250848e-19)
(1.248264 -0.059741974 1.0441427e-21)
(1.2291394 -0.044843861 -2.7711793e-19)
(1.2089765 -0.030369736 -5.5540183e-21)
(1.187903 -0.016242571 -6.5878998e-21)
(1.1660478 -0.0023791132 -1.0006644e-21)
(1.1435126 0.011314332 -2.272548e-19)
(1.1203886 0.02491457 2.1964841e-19)
(1.0966984 0.038514406 1.5803051e-21)
(1.0724866 0.052177686 1.1413937e-20)
(1.0477944 0.065967441 1.9938866e-19)
(1.0225972 0.079950192 0)
(0.9967753 0.0941255 2.7136751e-19)
(0.96974327 0.10821969 -2.3948038e-19)
(0.94672511 0.12916753 5.2396303e-19)
(0.92663925 -0.31532974 -2.4534821e-19)
(0.93783648 -0.32727809 3.3121128e-19)
(0.94955493 -0.33830536 -3.8357915e-20)
(0.96176642 -0.34840478 -2.0637572e-19)
(0.97514581 -0.35808001 0)
(0.98976087 -0.3672508 0)
(1.0054968 -0.37567782 -1.325863e-19)
(1.0222936 -0.38319147 1.5814182e-19)
(1.04012 -0.38964829 3.471219e-19)
(1.0589119 -0.39490275 1.4808663e-20)
(1.078573 -0.39880038 -1.0084821e-19)
(1.0989728 -0.40119211 4.3643398e-19)
(1.1199534 -0.40194636 7.4269999e-21)
(1.1413354 -0.40094764 -5.0265479e-19)
(1.1629092 -0.39810793 -4.4573414e-21)
(1.1844325 -0.39336428 3.4120196e-19)
(1.2056539 -0.38669774 -1.6927341e-19)
(1.2263134 -0.37812931 -3.4672906e-19)
(1.2461436 -0.36771632 -4.8455092e-19)
(1.264853 -0.35557105 -2.5894079e-19)
(1.2821973 -0.34182714 -1.7339283e-19)
(1.2978963 -0.32668165 3.5912332e-19)
(1.3117083 -0.31029815 2.0330902e-19)
(1.3234157 -0.29291976 7.6003424e-22)
(1.3328812 -0.27474321 -2.161891e-19)
(1.3399409 -0.25604638 -3.1539393e-19)
(1.34465 -0.23707529 2.2232324e-19)
(1.3468481 -0.21799697 5.4039617e-19)
(1.3465322 -0.19890297 2.7546876e-19)
(1.3445783 -0.18024043 5.4785202e-21)
(1.3404703 -0.16203915 4.9861931e-21)
(1.3344089 -0.14427904 4.8967423e-21)
(1.3265457 -0.12701556 4.554049e-21)
(1.3170052 -0.11027632 3.5621074e-19)
(1.3059167 -0.094047612 3.4652318e-19)
(1.2934224 -0.078301244 -1.4415016e-21)
(1.2796468 -0.062984148 -3.148431e-19)
(1.2646991 -0.048039148 1.5281603e-19)
(1.2486871 -0.033393946 2.9446065e-19)
(1.2316866 -0.018968475 1.0032257e-20)
(1.2137852 -0.0046935351 -2.6534969e-19)
(1.1950427 0.0095075031 -1.8803432e-21)
(1.1754904 0.023704874 2.2700415e-20)
(1.1551628 0.037958364 2.476713e-19)
(1.134051 0.052309493 -4.7125927e-19)
(1.1121601 0.06679211 -5.8952899e-21)
(1.0894616 0.081433283 -6.0184701e-20)
(1.065867 0.096207675 -7.9475211e-20)
(1.0408422 0.1108005 -3.8512218e-19)
(1.0188775 0.13100245 9.1176264e-21)
(0.93131816 -0.29753002 -5.318812e-19)
(0.94158782 -0.30920827 3.197323e-19)
(0.95235123 -0.32001327 -2.450439e-19)
(0.96359146 -0.32996211 -2.5084783e-19)
(0.97596843 -0.33955909 2.3255029e-19)
(0.98955779 -0.34872146 3.0870005e-19)
(1.0042534 -0.35722209 -2.9961967e-19)
(1.0200047 -0.3648902 -3.3458538e-19)
(1.0367914 -0.37158774 1.5044098e-19)
(1.0545625 -0.37716827 -3.1628855e-19)
(1.0732268 -0.38147566 -1.3522648e-20)
(1.0926662 -0.38435913 5.7105712e-19)
(1.11274 -0.38568346 4.3829943e-19)
(1.1332718 -0.38533036 1.5674611e-19)
(1.1540651 -0.38319885 -2.7359368e-19)
(1.1748964 -0.37922365 1.2879911e-19)
(1.195519 -0.37337261 3.4518831e-19)
(1.2156835 -0.36566064 -6.692854e-21)
(1.2351394 -0.35613594 -2.2833399e-19)
(1.2536145 -0.34489782 -5.974627e-19)
(1.2708804 -0.33207863 4.3712357e-19)
(1.2867089 -0.31786334 -3.5529114e-19)
(1.3009064 -0.30245064 -5.9455414e-21)
(1.3132815 -0.28606039 6.3633266e-20)
(1.3236993 -0.268888 3.2864275e-19)
(1.3320412 -0.25116813 2.2392754e-19)
(1.3382618 -0.23315239 -3.8679457e-20)
(1.3424759 -0.21500182 0)
(1.3444089 -0.19681746 -5.4362461e-21)
(1.3441538 -0.17886007 -2.4562129e-19)
(1.3424941 -0.16124405 -2.3422161e-19)
(1.3390255 -0.14405913 -2.2209972e-19)
(1.3339723 -0.12733341 -4.6538092e-21)
(1.3274345 -0.11104967 -1.8122725e-20)
(1.3195088 -0.095179485 -3.6301273e-19)
(1.3102975 -0.079688155 -3.3828402e-19)
(1.2998935 -0.064530975 -3.2892432e-19)
(1.2883737 -0.049647753 -5.5419829e-21)
(1.2757944 -0.034968693 6.0246698e-19)
(1.2622165 -0.020430266 -2.3133371e-20)
(1.2476751 -0.0059642139 -6.0287246e-21)
(1.2321929 0.0084894212 3.5773221e-20)
(1.2157784 0.02297984 -2.6169495e-19)
(1.1984276 0.037545512 -4.9504537e-19)
(1.1801081 0.052207958 6.8959046e-21)
(1.1607952 0.066966859 -2.1113033e-19)
(1.1404672 0.081814232 2.8710556e-19)
(1.1190221 0.096704192 0)
(1.0960379 0.1113386 2.8635234e-19)
(1.0751446 0.13004389 3.1026966e-19)
(0.93572308 -0.28133841 2.3461207e-19)
(0.94517003 -0.29274407 -2.9021192e-19)
(0.95508377 -0.3033142 -1.9060893e-19)
(0.965454 -0.31309294 1.4618764e-19)
(0.97693216 -0.32258426 2.8428874e-19)
(0.9895937 -0.33170646 -2.8309832e-19)
(1.0033448 -0.34023348 1.0614974e-19)
(1.018143 -0.34800448 1.5203051e-19)
(1.0339775 -0.35488256 2.9444221e-19)
(1.0508028 -0.36072191 -4.6343344e-19)
(1.068542 -0.36536761 -7.7792867e-19)
(1.0870873 -0.368668 -2.582825e-19)
(1.106305 -0.3704833 3.2334967e-23)
(1.1260343 -0.37068814 3.0298941e-19)
(1.1460846 -0.36918105 1.6776662e-19)
(1.1662415 -0.36588476 0)
(1.1862737 -0.36075827 1.0380166e-18)
(1.2059353 -0.35380583 -1.0153148e-19)