/*--------------------------------*- C++ -*----------------------------------*\
  =========                 |
  \\      /  F ield         | OpenFOAM: The Open Source CFD Toolbox
   \\    /   O peration     | Website:  https://openfoam.org
    \\  /    A nd           | Version:  8
     \\/     M anipulation  |
\*---------------------------------------------------------------------------*/
FoamFile
{
    version     2.0;
    format      ascii;
    class       volVectorField;
    location    "350";
    object      U_0;
}
// * * * * * * * * * * * * * * * * * * * * * * * * * * * * * * * * * * * * * //

dimensions      [0 1 -1 0 0 0 0];

internalField   nonuniform List<vector> 
17000
(
(0.33779473 -0.32941302 2.3244596e-18)
(0.34181368 -0.31812948 -2.4636029e-18)
(0.3450686 -0.3049837 -1.2438334e-18)
(0.34611421 -0.28954729 -2.2640431e-18)
(0.34494266 -0.27239254 9.3903738e-19)
(0.34156801 -0.25395434 3.0822604e-18)
(0.33618463 -0.23473417 -8.6863632e-19)
(0.32900562 -0.21516493 9.4374932e-20)
(0.32020698 -0.19556288 6.9997184e-20)
(0.30995595 -0.17623498 -7.5721709e-19)
(0.29865959 -0.15757921 -1.2812579e-18)
(0.28635451 -0.13974311 -1.3535246e-19)
(0.27340347 -0.12293676 1.2079173e-20)
(0.25986511 -0.10720866 6.6887774e-19)
(0.24601497 -0.092673634 1.4607155e-18)
(0.23199287 -0.079304666 -9.9938541e-19)
(0.21782521 -0.067056164 -5.4844713e-19)
(0.20378746 -0.056005278 7.3237795e-22)
(0.18998783 -0.046122161 1.7132374e-19)
(0.17642459 -0.037407809 5.4749437e-19)
(0.16282906 -0.030238692 4.1826634e-20)
(0.14911103 -0.025479262 -1.8754153e-20)
(0.13745869 -0.020050709 0)
(0.12542973 -0.012914231 -3.4876146e-20)
(0.11376965 -0.0075638801 -1.7222508e-21)
(0.10286897 -0.0036695875 1.9810796e-19)
(0.092594712 -0.00071084689 9.7182396e-20)
(0.082879735 0.0016253908 6.8474255e-20)
(0.07367792 0.0033758737 -6.8211707e-20)
(0.064966663 0.0045918499 -2.635592e-19)
(0.056769947 0.0054206698 4.6433202e-22)
(0.049156955 0.0058678313 -6.5995031e-20)
(0.042098313 0.0059988278 1.6818713e-21)
(0.035586543 0.0058087308 2.4653192e-19)
(0.029574734 0.0053415268 -3.1200872e-19)
(0.024033329 0.0046677107 -2.5803685e-19)
(0.018999991 0.0038212831 3.6182403e-19)
(0.014459942 0.0028280236 -3.5629694e-21)
(0.010378779 0.0016931739 3.6611519e-21)
(0.0067179789 0.00048284205 5.8241995e-19)
(0.0034008059 -0.00077018979 -3.5528058e-20)
(0.00045296947 -0.0021474951 -4.4173447e-19)
(-0.0021023969 -0.0037341457 -1.1549962e-19)
(-0.0044390379 -0.0054982589 1.2551173e-19)
(-0.0067006791 -0.0073825097 3.5619563e-19)
(-0.0088566986 -0.0093982901 -1.4036397e-19)
(-0.01086934 -0.011601903 -2.4564269e-19)
(-0.012755952 -0.013986873 3.7242624e-19)
(-0.014503635 -0.016454119 -2.7609844e-19)
(-0.016116185 -0.018977903 -3.9981552e-19)
(0.66843419 -0.61489066 2.1593197e-18)
(0.68274697 -0.60537499 8.5550737e-19)
(0.69644394 -0.59315575 -1.801471e-18)
(0.70886201 -0.57802041 -8.8384904e-19)
(0.71890895 -0.55935295 -2.1923751e-19)
(0.72607578 -0.53709659 -3.8814674e-21)
(0.72997207 -0.51184125 -1.3288611e-18)
(0.73031662 -0.48387448 -2.2821906e-20)
(0.72697699 -0.4535745 1.8531551e-18)
(0.71992457 -0.42150046 4.2024541e-19)
(0.70925879 -0.38832984 -1.9811392e-19)
(0.69520472 -0.35468602 -7.4134933e-19)
(0.67787335 -0.32101952 6.0031605e-19)
(0.65758283 -0.28777727 -2.8669316e-19)
(0.63474955 -0.25548498 2.8106586e-19)
(0.60971319 -0.22443574 -1.0540911e-20)
(0.58279552 -0.19490927 -5.4510531e-19)
(0.55448144 -0.16718088 -2.6872527e-19)
(0.52516824 -0.14138748 -6.2197299e-21)
(0.49526263 -0.11769669 2.4587543e-19)
(0.46499418 -0.0961899 7.3760781e-19)
(0.43460753 -0.07712915 1.8959917e-22)
(0.40470966 -0.060135004 -2.3178197e-19)
(0.37526655 -0.044690132 -1.7046594e-19)
(0.34641781 -0.031213533 2.1249355e-19)
(0.31838217 -0.01980869 3.2003832e-20)
(0.29132951 -0.010223944 1.6900207e-19)
(0.26543999 -0.0023028706 -3.9602332e-19)
(0.24066954 0.0040554606 -2.2409733e-19)
(0.21711957 0.0091367804 4.0409895e-21)
(0.19481342 0.012966961 -8.5907838e-20)
(0.17375932 0.01572084 6.0187653e-21)
(0.15403575 0.01754077 0)
(0.13561435 0.018262036 2.8984835e-19)
(0.11849114 0.018192453 2.8670675e-19)
(0.10262199 0.017624005 1.2024108e-19)
(0.087996686 0.016500992 1.0968578e-19)
(0.074594487 0.01489859 -2.7843883e-19)
(0.06237137 0.012863879 9.3032706e-20)
(0.051252559 0.01045752 2.2045646e-19)
(0.04118725 0.0077000911 -4.4949378e-19)
(0.032074519 0.0045909122 5.3762777e-21)
(0.023860178 0.0011111171 3.1507037e-19)
(0.016491671 -0.0027190243 -3.8551167e-20)
(0.0098955721 -0.006895028 1.100867e-19)
(0.0039735317 -0.011356325 -1.5954337e-19)
(-0.0014035517 -0.015989712 -9.0806734e-20)
(-0.0063232915 -0.020617557 2.1804525e-19)
(-0.010789864 -0.024992872 3.1696828e-19)
(-0.014749852 -0.028970245 4.8193812e-21)
(0.80316773 -0.67801636 1.5900576e-18)
(0.82640991 -0.67580823 2.2826327e-20)
(0.84882551 -0.67162502 -1.4243706e-18)
(0.87032383 -0.66508337 -1.3443809e-19)
(0.89030224 -0.6557642 7.1477541e-19)
(0.90823861 -0.64337289 1.2725677e-20)
(0.92359262 -0.62763913 -8.0757951e-19)
(0.93599309 -0.60828257 6.0948244e-20)
(0.94504337 -0.58530911 -9.0517385e-21)
(0.95029332 -0.55839731 -1.8952986e-18)
(0.95136474 -0.52788849 -2.8744516e-19)
(0.94790451 -0.49491152 -1.4231197e-18)
(0.93974805 -0.46001279 -2.8560424e-20)
(0.92687562 -0.4236847 1.2792156e-18)
(0.9094482 -0.38648051 5.549026e-19)
(0.88779321 -0.34906872 1.0577937e-19)
(0.86221734 -0.31197375 1.3099645e-20)
(0.8330504 -0.27567156 -8.2520266e-19)
(0.8009306 -0.24071606 -2.4106144e-19)
(0.76631933 -0.20746585 -1.9450733e-19)
(0.72968521 -0.17625112 -2.3461308e-21)
(0.69173488 -0.14739236 1.2387719e-19)
(0.65289751 -0.12094795 2.5550558e-20)
(0.61358304 -0.096927742 -3.3850037e-19)
(0.57414129 -0.075375932 2.299992e-19)
(0.53484759 -0.056313757 1.4003835e-21)
(0.49615912 -0.039747287 -2.0098253e-19)
(0.45843645 -0.025566162 -1.8648756e-19)
(0.42185783 -0.013631257 8.4736926e-20)
(0.38660108 -0.0037542466 0)
(0.3528284 0.0042302673 1.5924715e-19)
(0.32058275 0.01048152 -2.3068602e-19)
(0.29000472 0.015147781 1.4418354e-19)
(0.26114417 0.018374169 5.0477969e-19)
(0.23400547 0.020446603 -1.2477238e-19)
(0.20863999 0.021517672 -1.1471331e-19)
(0.18501376 0.021499115 0)
(0.16310915 0.02070239 -4.7659586e-20)
(0.14287602 0.019171183 -3.0663674e-20)
(0.12430348 0.016989553 2.2414121e-21)
(0.10733055 0.014174301 2.9847431e-21)
(0.091908766 0.010767529 2.5574629e-19)
(0.077960866 0.0068058822 1.6096496e-19)
(0.065426259 0.0023663155 -1.6102451e-19)
(0.054210776 -0.0024388531 -2.3769634e-19)
(0.044184404 -0.0074534459 1.725249e-21)
(0.035225005 -0.012465306 9.4050463e-20)
(0.027129646 -0.017229468 -8.0554443e-20)
(0.019851104 -0.021312945 3.5001411e-23)
(0.013678075 -0.024182542 -7.8856544e-20)
(0.84973233 -0.65651679 3.6167603e-18)
(0.87662896 -0.66227151 -4.7352318e-19)
(0.90324868 -0.66548744 -6.9874615e-19)
(0.92984272 -0.66499934 -2.4935221e-19)
(0.9555975 -0.66225538 -6.330754e-19)
(0.9803959 -0.65738843 7.4407527e-19)
(1.0034285 -0.64918417 5.6897482e-19)
(1.0247771 -0.63805392 8.7276377e-19)
(1.0437708 -0.62390292 1.21582e-18)
(1.0598751 -0.60641933 -1.1612379e-18)
(1.0726214 -0.58526322 -6.5541227e-19)
(1.0814393 -0.56048131 2.763061e-20)
(1.0857923 -0.53234506 -1.9598077e-18)
(1.085343 -0.50131866 -2.380318e-19)
(1.079816 -0.46787377 5.4835904e-19)
(1.0690947 -0.43256553 4.6873234e-19)
(1.0532116 -0.39598565 1.1187625e-18)
(1.0323051 -0.3587377 -2.9480515e-21)
(1.0066962 -0.32147755 3.069506e-19)
(0.97671594 -0.28469208 5.9082208e-21)
(0.94296297 -0.24904878 -7.5510715e-19)
(0.90604017 -0.21500443 4.0241013e-21)
(0.86648896 -0.18284048 3.6598948e-19)
(0.82488467 -0.15285116 3.1216275e-19)
(0.78186658 -0.12526636 4.9007564e-20)
(0.7378512 -0.10021297 2.0558159e-19)
(0.6934032 -0.077808814 2.7560089e-21)
(0.64908788 -0.05806241 4.1104895e-19)
(0.60516492 -0.040859052 4.920045e-21)
(0.56206001 -0.026124282 4.4412823e-19)
(0.52010643 -0.013710453 -3.6021249e-19)
(0.47954183 -0.0034416195 4.4940167e-21)
(0.44053348 0.0048130241 3.8034761e-19)
(0.40324892 0.011257172 -2.0176743e-19)
(0.3678036 0.016086231 -3.9306513e-19)
(0.3342926 0.019465251 2.0347681e-19)
(0.30271177 0.021578682 9.7668795e-20)
(0.27310159 0.022577157 2.2582924e-21)
(0.24549315 0.022481917 9.2373375e-20)
(0.21987069 0.021518026 -3.8804771e-19)
(0.19624476 0.019656528 -1.1300651e-19)
(0.17460825 0.017032545 1.2699052e-19)
(0.15489362 0.013736245 2.5246876e-20)
(0.13706022 0.0099071755 -1.3686956e-20)
(0.12100016 0.0057374092 0)
(0.10658034 0.0014591289 1.0619204e-20)
(0.093577012 -0.0026640275 -4.8543822e-20)
(0.081684458 -0.006371308 -9.7761198e-20)
(0.070925643 -0.0090624114 9.5449872e-22)
(0.061894444 -0.0097323359 4.7731746e-20)
(0.86780824 -0.60695659 1.5771465e-18)
(0.8950674 -0.6173859 8.8492487e-20)
(0.92216283 -0.62614168 1.0801078e-18)
(0.94894024 -0.6323536 1.4920586e-19)
(0.97605489 -0.63574936 -1.1125803e-18)
(1.0030308 -0.63651496 0)
(1.0293791 -0.63465293 6.6633941e-19)
(1.0549357 -0.62963155 6.2978405e-21)
(1.0793951 -0.62182149 -8.0354156e-20)
(1.10227 -0.61073699 1.0430769e-18)
(1.1229751 -0.5964642 1.0958451e-20)
(1.1408317 -0.57896754 3.2696287e-19)
(1.1552379 -0.55823659 -4.1166105e-19)
(1.165669 -0.53433679 8.4500071e-21)
(1.1716509 -0.50741392 -2.6591231e-19)
(1.1727773 -0.47776763 3.7715515e-20)
(1.1687146 -0.44580459 1.3322109e-19)
(1.1592982 -0.41203866 7.6286736e-19)
(1.1444672 -0.37705355 2.149045e-19)
(1.1243208 -0.34139973 9.4182887e-19)
(1.0991775 -0.30570375 -4.6573558e-19)
(1.0693909 -0.2705222 3.0826791e-19)
(1.0354332 -0.23629969 -4.2385106e-19)
(0.99793805 -0.20356172 5.7655715e-19)
(0.95751064 -0.17269222 0)
(0.91470289 -0.14394772 0)
(0.87017227 -0.11758426 3.578745e-19)
(0.82449016 -0.093719436 -3.8007351e-21)
(0.77825199 -0.072390982 6.4681686e-19)
(0.73191281 -0.053584558 -3.6508213e-19)
(0.68583472 -0.037216906 -1.3140152e-19)
(0.64052675 -0.02318779 1.9820295e-19)
(0.59618637 -0.011360918 4.6063269e-21)
(0.5532054 -0.0015932757 -8.7181351e-20)
(0.51181261 0.0063026217 1.4646125e-19)
(0.47214799 0.012486377 6.3746009e-20)
(0.43435401 0.017136416 0)
(0.39850276 0.020384475 -1.7998497e-21)
(0.36467713 0.022401104 -4.3854037e-19)
(0.33295357 0.023298645 -6.1842992e-20)
(0.30339532 0.023102503 2.9733835e-19)
(0.27604695 0.022084298 5.8148034e-20)
(0.25087784 0.020300399 -2.7528495e-20)
(0.2278349 0.017954024 2.1686126e-21)
(0.20687909 0.015287863 7.378057e-20)
(0.18782263 0.012567457 -1.0421606e-20)
(0.17040682 0.010074834 -1.2311956e-20)
(0.15424551 0.0080526206 -2.226327e-21)
(0.13937477 0.0071633501 -1.8043745e-21)
(0.12709127 0.0092589209 3.8059867e-21)
(0.87645119 -0.55651372 9.4836997e-19)
(0.90160126 -0.56843397 -7.2131445e-19)
(0.9270888 -0.57876565 -5.1145693e-19)
(0.95289673 -0.58724453 -5.080786e-19)
(0.97952099 -0.59404741 -1.2232026e-19)
(1.0067523 -0.59894142 0)
(1.0342013 -0.60162901 1.3963481e-19)
(1.0615085 -0.60181379 6.0549378e-19)
(1.0881968 -0.5992856 -5.897715e-19)
(1.1139062 -0.59385713 -3.9180563e-19)
(1.1382611 -0.58532521 -7.0446286e-21)
(1.1609513 -0.57349644 1.0222145e-18)
(1.1815556 -0.55838362 3.0145095e-20)
(1.1993852 -0.54025925 -1.3846476e-18)
(1.2137419 -0.51926721 5.3371376e-19)
(1.2241193 -0.49552198 7.7325197e-19)
(1.2300539 -0.46913866 -5.2763766e-19)
(1.2311774 -0.44038395 1.2598607e-20)
(1.2271618 -0.40966008 -5.4868056e-19)
(1.2178105 -0.37747792 4.9709628e-19)
(1.2031107 -0.34434838 2.5861869e-19)
(1.1831551 -0.3108111 5.1795164e-19)
(1.1582658 -0.27741939 7.6307339e-21)
(1.1287819 -0.24466047 -3.017321e-19)
(1.0952012 -0.21300732 0)
(1.0579877 -0.1828064 0)
(1.0178312 -0.15446875 -1.854734e-19)
(0.97531977 -0.12821039 -2.8778196e-19)
(0.93109404 -0.1042061 2.4295284e-19)
(0.88571208 -0.082512439 -3.5589567e-19)
(0.83960919 -0.06313698 2.2057887e-19)
(0.79341818 -0.046083648 2.3318291e-19)
(0.74740512 -0.031213005 3.565528e-19)
(0.70205336 -0.01845904 -9.2316648e-20)
(0.65759478 -0.0076497031 3.6697072e-22)
(0.61433542 0.0013352558 -7.3687526e-20)
(0.57258039 0.0086481891 3.1336543e-23)
(0.53248385 0.014436953 -2.3457605e-19)
(0.49418655 0.018840203 6.1089341e-20)
(0.45784181 0.021982489 2.8497127e-19)
(0.42360307 0.024026128 -8.6592623e-20)
(0.39153132 0.025137327 3.2824534e-20)
(0.36162907 0.025386834 6.1197129e-21)
(0.33393984 0.025137704 8.6054229e-20)
(0.30840398 0.024556437 -1.8701877e-20)
(0.28482844 0.023917574 -3.53303e-20)
(0.26300433 0.023503266 -2.194138e-20)
(0.24247897 0.023530755 1.1672509e-20)
(0.22332966 0.024773563 4.2257022e-20)
(0.20735056 0.029802543 0)
(0.88351575 -0.51163542 1.0889286e-18)
(0.90603747 -0.52425483 9.5003866e-20)
(0.92906938 -0.53536638 2.0489282e-19)
(0.95261038 -0.54477804 6.3523386e-19)
(0.97725718 -0.5528543 -8.4476846e-19)
(1.0029502 -0.55952217 4.0063194e-19)
(1.0293994 -0.5644915 2.567836e-20)
(1.0563418 -0.56749888 -2.4758821e-19)
(1.0835055 -0.56831973 1.7680021e-19)
(1.1105411 -0.56672854 -5.7288151e-21)
(1.1370533 -0.56247346 1.1435373e-20)
(1.1625779 -0.55537016 -3.1501428e-19)
(1.1863763 -0.54531438 1.0897213e-18)
(1.208082 -0.53213198 -5.1050624e-19)
(1.2273931 -0.51581132 -2.0580369e-18)
(1.2439488 -0.49658793 4.2856901e-19)
(1.2571094 -0.47487229 6.668027e-19)
(1.2662031 -0.45084625 -2.8481369e-19)
(1.2708536 -0.424682 -5.5536335e-19)
(1.2707948 -0.3966571 6.9996931e-19)
(1.2657437 -0.3671259 3.3755143e-19)
(1.2555687 -0.33656116 -9.4814026e-20)
(1.2403197 -0.30549806 7.160976e-19)
(1.22012 -0.2744068 5.1218948e-19)
(1.1952596 -0.24375935 4.4990196e-19)
(1.1661048 -0.21395399 1.9074863e-20)
(1.1331438 -0.18538869 4.2247488e-19)
(1.0968721 -0.15834843 2.1714312e-20)
(1.0578457 -0.13308759 -3.5070908e-19)
(1.0167312 -0.1097979 5.5976282e-19)
(0.97398607 -0.088539359 6.7283299e-20)
(0.93017549 -0.069377362 1.0983424e-19)
(0.88572962 -0.052245294 -2.5308969e-19)
(0.8411232 -0.037120852 1.557676e-20)
(0.79670855 -0.023889971 -9.5554222e-20)
(0.75282638 -0.012450142 8.5302253e-20)
(0.70982254 -0.0026833356 3.8658717e-22)
(0.66788398 0.005564337 -6.751521e-20)
(0.62726419 0.01240651 1.7166658e-19)
(0.58821673 0.017974682 -1.2241948e-19)
(0.55096018 0.02241903 3.3601852e-20)
(0.51560051 0.025891128 6.282558e-20)
(0.48222824 0.028607409 -2.6200548e-20)
(0.45088357 0.030758992 1.2007551e-20)
(0.4215539 0.032569742 -6.2954066e-20)
(0.39411176 0.034296213 7.325263e-22)
(0.36832841 0.036187712 2.311252e-20)
(0.34372452 0.038405241 1.6831712e-20)
(0.32032359 0.041707616 0)
(0.30074719 0.049876459 -5.4277777e-19)
(0.8902275 -0.47227209 7.2755052e-19)
(0.91036847 -0.48512803 2.38433e-19)
(0.93109482 -0.49659607 -8.0505725e-19)
(0.95235098 -0.50650674 1.0475374e-18)
(0.97479267 -0.51528692 8.4275477e-19)
(0.99842484 -0.52286591 0)
(1.0230426 -0.52899387 2.3694776e-19)
(1.048473 -0.53347703 0)
(1.0745481 -0.53617754 -4.7785937e-21)
(1.1010458 -0.53690589 0)
(1.127677 -0.53541036 -1.9509183e-19)
(1.154061 -0.53146197 5.6652665e-19)
(1.1796699 -0.52491134 -2.0316737e-19)
(1.2040395 -0.51558936 7.0269029e-19)
(1.226678 -0.50342385 -7.2494257e-19)
(1.2467452 -0.48849901 -1.4330971e-18)
(1.2641272 -0.47071206 1.919746e-19)
(1.278535 -0.45031935 -2.7909788e-19)
(1.2894787 -0.42786121 -4.472776e-19)
(1.2964086 -0.40361397 -3.0414323e-19)
(1.2990017 -0.3777048 2.0725091e-19)
(1.2970279 -0.35044948 1.5845959e-20)
(1.290349 -0.32228483 -1.4984691e-19)
(1.278891 -0.29362916 1.3597914e-19)
(1.2627403 -0.26493422 7.223938e-20)
(1.2421105 -0.23657705 -5.5670858e-21)
(1.2173197 -0.20894352 2.1520059e-19)
(1.1887392 -0.18235262 6.1638282e-21)
(1.1568172 -0.15708168 -3.7418965e-19)
(1.1220497 -0.13333426 -5.4767723e-19)
(1.0848813 -0.11122707 -4.6256182e-20)
(1.045906 -0.090909211 -3.145644e-19)
(1.0055394 -0.072368947 -3.9477364e-19)
(0.96427365 -0.055618779 1.1894708e-19)
(0.92244627 -0.040580051 2.348379e-21)
(0.88049397 -0.027200848 -6.6501109e-20)
(0.83871539 -0.015375768 -4.1074855e-19)
(0.79744014 -0.0049942482 7.8132384e-20)
(0.75694038 0.0040631463 -3.9447439e-20)
(0.71743814 0.011929625 -6.067947e-20)
(0.67917078 0.018743148 2.281274e-19)
(0.64233568 0.024663699 -2.7836186e-20)
(0.60707051 0.029865355 4.0438039e-20)
(0.5734765 0.034536114 -1.0356511e-19)
(0.54160317 0.038873755 2.882661e-21)
(0.51136382 0.043102313 1.3537858e-20)
(0.48261233 0.047442663 8.8189608e-20)
(0.45496049 0.052009604 -4.5467953e-20)
(0.42826226 0.057503991 -7.6825283e-20)
(0.40604098 0.068957114 -1.5429954e-19)
(0.89671754 -0.43774214 -1.1975238e-18)
(0.91477626 -0.45062963 -2.5940584e-20)
(0.9334463 -0.4622464 2.3513559e-20)
(0.95266406 -0.47242993 -1.8761734e-20)
(0.97309503 -0.48164804 6.6091167e-19)
(0.9947652 -0.48983084 0)
(1.0175027 -0.49673671 0)
(1.0411748 -0.50216465 5.541018e-19)
(1.0656616 -0.50596563 -2.7196883e-19)
(1.0908224 -0.50800706 -3.8984403e-20)
(1.1164647 -0.50814174 2.0882503e-20)
(1.1423134 -0.50620711 -4.6039825e-19)
(1.1680401 -0.50203867 4.5193559e-19)
(1.193213 -0.49544318 -2.1958267e-19)
(1.2173914 -0.48628359 7.1224085e-19)
(1.239937 -0.47455712 -1.9046685e-19)
(1.2605235 -0.46014795 -2.7158468e-19)
(1.27833 -0.44339487 -2.8174643e-19)
(1.2931389 -0.42419101 3.2164761e-22)
(1.3047137 -0.40282726 -1.3136703e-18)
(1.3131747 -0.37988678 -3.2187036e-19)
(1.3171471 -0.35567621 -1.0390238e-19)
(1.3172266 -0.33036181 1.5183842e-19)
(1.3130512 -0.30427124 -5.4476124e-19)
(1.3045301 -0.2778543 -5.2382558e-19)
(1.2916996 -0.2514257 0)
(1.274744 -0.22533154 -4.7385719e-19)
(1.253914 -0.19989114 0)
(1.2295228 -0.17537997 -1.9575686e-19)
(1.201926 -0.15200834 -3.7405467e-19)
(1.1715463 -0.12993879 3.3861585e-20)
(1.1387836 -0.10927599 1.5246339e-21)
(1.1040868 -0.090094731 1.479622e-19)
(1.067864 -0.07241808 -1.1400708e-19)
(1.0305296 -0.056230815 7.5552627e-20)
(0.99245163 -0.041488384 -1.928454e-19)
(0.95393946 -0.028109561 5.230324e-20)
(0.91537526 -0.016016879 2.343499e-19)
(0.87696244 -0.0050868478 -3.3084823e-20)
(0.83901593 0.0047840299 -9.8682689e-20)
(0.8017722 0.013732866 -1.0764889e-19)
(0.76543966 0.021902916 -1.3726417e-20)
(0.73012704 0.029457127 4.7808606e-20)
(0.6960148 0.036561685 -9.5692824e-20)
(0.66312895 0.043398975 7.9817048e-20)
(0.63146585 0.050151509 -6.4568188e-20)
(0.6010135 0.057020463 2.9660983e-20)
(0.57143642 0.064098152 1.2021459e-19)
(0.54240093 0.071922677 4.0906325e-20)
(0.51886374 0.086895254 -9.7193213e-20)
(0.90294854 -0.40726566 -1.316957e-18)
(0.91920939 -0.42007726 -7.0048941e-19)
(0.93607582 -0.43170617 -5.09765e-19)
(0.95349508 -0.44202941 3.2537017e-19)
(0.97213917 -0.45152386 5.7950133e-19)
(0.99203991 -0.46011727 0)
(1.0130509 -0.46757099 -5.5348549e-19)
(1.0350522 -0.47368749 5.2058313e-19)
(1.0579571 -0.47832707 1.4713442e-18)
(1.0816486 -0.48134805 -7.9391647e-19)
(1.1059743 -0.48260229 5.8338328e-20)
(1.1307249 -0.48194442 2.4605626e-19)
(1.1556585 -0.479269 1.9648695e-19)
(1.1804861 -0.47447218 -2.1235082e-19)
(1.2048687 -0.46742814 -2.077751e-19)
(1.2282958 -0.45806045 1.782294e-19)
(1.2504005 -0.44626354 8.9889179e-20)
(1.2705341 -0.43216377 6.6693334e-19)
(1.2883805 -0.41575057 -1.4156912e-19)
(1.303294 -0.3973461 -2.761679e-19)
(1.3150854 -0.37705071 -4.143039e-20)
(1.3235323 -0.35517565 -5.6946752e-19)
(1.3289973 -0.33225548 0)
(1.3299136 -0.30855195 0)
(1.3274809 -0.28432975 0)
(1.3211489 -0.25988561 -2.6509525e-19)
(1.310968 -0.23553089 0)
(1.297091 -0.21155667 2.1142488e-20)
(1.2797163 -0.18821071 -2.2036913e-19)
(1.2591108 -0.16569403 6.0575414e-19)
(1.235593 -0.14418375 1.8787688e-19)
(1.2094791 -0.12377904 0)
(1.1811313 -0.1045674 -1.7559691e-19)
(1.1508585 -0.086561866 2.76303e-21)
(1.1190792 -0.069794567 -2.6860293e-19)
(1.0860715 -0.054220965 2.4042567e-19)
(1.0522012 -0.039802765 2.238871e-19)
(1.0177612 -0.02645716 0)
(0.98300329 -0.014083878 -3.2214749e-20)
(0.94818669 -0.0025881778 1.5258322e-19)
(0.91355259 0.0081552865 -2.0797956e-19)
(0.87928319 0.018274968 1.4598599e-19)
(0.84552813 0.027914533 1.380068e-19)
(0.81245006 0.037209289 5.8049714e-20)
(0.78012209 0.046326042 3.1134268e-21)
(0.74855269 0.055422596 2.7138775e-22)
(0.71773676 0.064668403 -1.4864426e-19)
(0.6874271 0.074133086 -3.6403257e-21)
(0.65701907 0.084119578 5.2606032e-20)
(0.63240568 0.1017931 0)
(0.90889028 -0.38019962 0)
(0.92359292 -0.39285682 -5.454995e-19)
(0.93888307 -0.40441174 3.2853801e-19)
(0.95472194 -0.41477691 3.2050687e-19)
(0.97177984 -0.42443354 -5.0851768e-19)
(0.99010421 -0.4333098 0)
(1.009554 -0.44116116 0)
(1.0300316 -0.44779669 -6.8382237e-19)
(1.0514623 -0.45308074 6.8488665e-19)
(1.0737497 -0.45687117 4.8417177e-19)
(1.0967594 -0.45901714 -4.5785739e-19)
(1.1203161 -0.45937445 1.6295151e-19)
(1.1442126 -0.45782723 2.0110449e-19)
(1.1682099 -0.45427773 -2.0470094e-21)
(1.1920329 -0.44864601 -8.6663973e-19)
(1.2153681 -0.44091819 6.0593367e-21)
(1.2378514 -0.43101492 -2.3152886e-19)
(1.2589729 -0.41896654 2.3138037e-19)
(1.2783944 -0.40476307 -2.4359608e-21)
(1.2955693 -0.38859555 7.1622329e-19)
(1.3101885 -0.37057883 -2.1166671e-19)
(1.3217883 -0.35110882 0)
(1.3302316 -0.33029507 0)
(1.3356251 -0.30846471 -2.8474432e-19)
(1.3375928 -0.28610951 5.5368754e-20)
(1.3362031 -0.26347572 4.9218809e-21)
(1.3314149 -0.24080474 -3.2562502e-20)
(1.323306 -0.2183482 -4.6645641e-19)
(1.3119473 -0.19630582 -2.3418829e-19)
(1.2975312 -0.17486417 -9.5893284e-21)
(1.2802807 -0.15417819 0)
(1.2604499 -0.1343628 2.4641329e-21)
(1.2383003 -0.11549246 6.0868287e-21)
(1.2141219 -0.097598043 1.5828385e-19)
(1.188212 -0.080694578 5.3174677e-21)
(1.160818 -0.064744709 -1.3632066e-19)
(1.1322091 -0.049716151 4.4233655e-21)
(1.1027031 -0.035549989 8.292274e-21)
(1.0724902 -0.022151159 -2.083864e-19)
(1.0417998 -0.009433021 9.0567016e-20)
(1.0108671 0.0027101061 1.8137264e-19)
(0.97983979 0.014398205 -3.26076e-21)
(0.94886056 0.025749093 -8.4257953e-20)
(0.91802615 0.036888462 1.580919e-19)
(0.88747225 0.047935291 0)
(0.85718449 0.059030377 1.4677679e-19)
(0.8271747 0.070291825 5.1254055e-21)
(0.79726824 0.081757019 -2.971123e-19)
(0.76670789 0.093522166 7.4444537e-20)
(0.74167999 0.11301512 -7.0230808e-19)
(0.9145304 -0.35602689 -4.9072098e-20)
(0.92787536 -0.36847842 5.2506264e-19)
(0.94178732 -0.37990152 3.9028236e-19)
(0.95623234 -0.39023409 -4.2754312e-19)
(0.97188388 -0.39996679 -4.4740673e-19)
(0.98879999 -0.40902586 0)
(1.0068462 -0.41715987 0)
(1.0259354 -0.42419455 0)
(1.0460153 -0.42998501 2.1422997e-19)
(1.0670003 -0.43438944 2.5868717e-19)
(1.0887691 -0.43725789 -4.1618868e-19)
(1.1111642 -0.43844581 -1.1675496e-19)
(1.1340028 -0.43783137 3.8694643e-19)
(1.1570722 -0.43530896 7.4078596e-19)
(1.1801288 -0.43080285 -3.2064134e-19)
(1.202898 -0.42427474 -6.5862667e-19)
(1.2250947 -0.41571101 3.8178383e-19)
(1.2463644 -0.4051601 -2.0524543e-19)
(1.2663617 -0.39263404 -1.1918447e-19)
(1.2846527 -0.37824109 3.0245061e-19)
(1.3008993 -0.36208295 0)
(1.3146997 -0.34443661 -2.8468658e-19)
(1.3258212 -0.32547354 -2.0751729e-19)
(1.334023 -0.30558542 5.6681964e-21)
(1.3391353 -0.28486461 -5.5170426e-20)
(1.3415627 -0.26370703 2.6617685e-19)
(1.3406468 -0.24244956 -1.8871562e-19)
(1.3371509 -0.22135405 -4.353516e-19)
(1.3306234 -0.2005885 -3.7088177e-20)
(1.3213146 -0.18025624 -2.7403837e-20)
(1.3093989 -0.16048646 0)
(1.2950573 -0.14140059 0)
(1.2784917 -0.12307342 3.577384e-19)
(1.2599176 -0.10552916 -3.4041405e-19)
(1.2395752 -0.088771419 3.0413675e-19)
(1.2176584 -0.072764174 -1.4091398e-19)
(1.194401 -0.057478441 2.7178196e-19)
(1.1699966 -0.0428458 -1.3157618e-19)
(1.1446541 -0.028787449 1.1506376e-19)
(1.1185432 -0.015224376 8.6916168e-21)
(1.0918561 -0.0020703483 1.0603082e-19)
(1.064697 0.010789739 -3.9883923e-19)
(1.0372014 0.023445318 8.4934947e-21)
(1.0094529 0.036004667 -1.8862589e-19)
(0.98148923 0.048558815 1.8895801e-19)
(0.95338078 0.061203135 0)
(0.92510949 0.074019921 -1.6653123e-20)
(0.8965295 0.087031262 1.8918781e-19)
(0.86693399 0.10012134 1.9467782e-19)
(0.84226097 0.12068613 -3.9247756e-19)
(0.91986729 -0.33432832 -6.6872445e-19)
(0.93202354 -0.34654323 -4.4179386e-19)
(0.94472398 -0.35779156 7.7901537e-19)
(0.95793754 -0.36803568 8.8707729e-20)
(0.97233912 -0.3777792 -3.9386959e-19)
(0.98799152 -0.38693862 0)
(1.0047703 -0.39527194 0)
(1.0226032 -0.4026045 0)
(1.0414459 -0.40879754 0)
(1.0612311 -0.41370214 -6.0391403e-21)
(1.0818446 -0.41716373 3.692408e-19)
(1.1031442 -0.41904062 1.611295e-20)
(1.1249658 -0.41920778 -3.5902111e-19)
(1.1471098 -0.41755378 5.1787585e-19)
(1.1693566 -0.41399638 9.3392476e-19)
(1.1914491 -0.40848527 -1.4476402e-19)
(1.2131221 -0.40100641 -3.7018536e-19)
(1.2340978 -0.39159099 -1.1734313e-19)
(1.254078 -0.38030543 5.0282961e-19)
(1.2727316 -0.367264 -1.094991e-19)
(1.2897367 -0.35256219 9.8038379e-20)
(1.3047556 -0.33641766 -1.8440658e-19)
(1.3175515 -0.31898283 -3.5031549e-19)
(1.3278539 -0.30055895 2.0904661e-19)
(1.3355388 -0.28132758 -2.7843601e-19)
(1.3404237 -0.26162543 -2.2554851e-19)
(1.342736 -0.24166431 8.221289e-20)
(1.3421015 -0.22163158 5.0844056e-19)
(1.3394855 -0.20194196 1.9011586e-19)
(1.3342594 -0.18265606 -2.4564306e-19)
(1.3266281 -0.16380421 -2.1699236e-19)
(1.3168005 -0.14548172 -2.0413009e-19)
(1.3049316 -0.12776035 -1.7982512e-19)
(1.2911846 -0.11067324 -1.7241006e-19)
(1.2757317 -0.094208905 3.3485309e-19)
(1.2587463 -0.078338669 3.0797987e-19)
(1.240392 -0.06301653 1.020222e-21)
(1.2208261 -0.048186841 -2.7354441e-19)
(1.200187 -0.033769362 -4.9132783e-21)
(1.1786019 -0.019688898 -6.5214903e-21)
(1.1561989 -0.0058649456 -3.1197646e-21)
(1.1330807 0.0077920362 -2.2293044e-19)
(1.109333 0.02135729 2.1845358e-19)
(1.0849813 0.03491633 1.8602947e-21)
(1.0600681 0.048527713 1.6493277e-20)
(1.0346343 0.062248541 1.9317161e-19)
(1.0086591 0.076137663 0)
(0.98201863 0.090190805 2.8026944e-19)
(0.95411071 0.10414971 -2.4006216e-19)
(0.93026227 0.12487207 4.9478127e-19)
(0.92490955 -0.3147617 -2.4462822e-19)
(0.93601778 -0.32671662 3.2916422e-19)
(0.94764751 -0.33775841 -3.7311738e-20)
(0.95977095 -0.34788043 -2.062272e-19)
(0.97305751 -0.35758227 0)
(0.9875742 -0.36678314 0)
(1.0032071 -0.37524489 -1.3084424e-19)
(1.0198968 -0.38279872 1.562156e-19)
(1.037612 -0.38930168 3.4453954e-19)
(1.0562888 -0.39460883 1.468456e-20)
(1.0758311 -0.3985664 -1.0084411e-19)
(1.096109 -0.4010261 4.3239663e-19)
(1.1169649 -0.40185711 7.3630692e-21)
(1.13822 -0.40094463 -4.9797507e-19)
(1.1596653 -0.39820142 -4.4130215e-21)
(1.1810595 -0.39356514 3.3803267e-19)
(1.2021516 -0.38701731 -1.6718842e-19)
(1.2226838 -0.37857908 -3.433255e-19)
(1.2423868 -0.36830842 -4.7973874e-19)
(1.2609715 -0.35631613 -2.5619705e-19)
(1.278192 -0.34273825 -1.7146313e-19)
(1.2937695 -0.32777186 3.5508558e-19)
(1.3074645 -0.31156718 2.0095772e-19)
(1.3190466 -0.294369 7.5131102e-22)
(1.3283837 -0.27638645 -2.1360039e-19)
(1.3353112 -0.25787829 -3.1145912e-19)
(1.3398638 -0.23909073 2.1962386e-19)
(1.341915 -0.22020044 5.3298481e-19)
(1.3414807 -0.20129621 2.7131484e-19)
(1.3393722 -0.18282161 5.4026212e-21)
(1.3350845 -0.16478684 4.9140481e-21)
(1.3288235 -0.14719751 4.8227268e-21)
(1.3207276 -0.13008673 4.4869809e-21)
(1.3109252 -0.1134822 3.5167519e-19)
(1.2995467 -0.09737614 3.4179912e-19)
(1.2867296 -0.081741668 -1.9933068e-21)
(1.2725942 -0.066524685 -3.1142784e-19)
(1.2572477 -0.051668898 1.4993782e-19)
(1.2407963 -0.037103788 2.9111732e-19)
(1.2233134 -0.022751924 1.1695153e-20)
(1.204886 -0.0085478057 -2.630973e-19)
(1.1855733 0.0055806959 -1.7770048e-21)
(1.165406 0.019699168 2.6113719e-20)
(1.1444196 0.03386147 2.4644642e-19)
(1.1226062 0.048103135 -4.6403375e-19)
(1.0999738 0.062452222 -6.0746827e-21)
(1.0764974 0.076930896 -6.6825658e-20)
(1.0520899 0.091510221 -8.7119503e-20)
(1.0262035 0.10587897 -3.9297645e-19)
(1.0034159 0.12585217 9.0987233e-21)
(0.92966496 -0.29703478 -5.2768695e-19)
(0.9398492 -0.3087198 3.1694936e-19)
(0.95052739 -0.31953966 -2.4371876e-19)
(0.9616828 -0.32951137 -2.4954852e-19)
(0.97397006 -0.3391351 2.314641e-19)
(0.98746412 -0.34832759 3.0627483e-19)
(1.0020598 -0.35686281 -2.973144e-19)
(1.017707 -0.36457076 -3.3201597e-19)
(1.0343856 -0.3713139 1.5007561e-19)
(1.0520448 -0.37694639 -3.1386758e-19)
(1.0705935 -0.38131281 -1.3405255e-20)
(1.0899141 -0.38426317 5.6589613e-19)
(1.1098666 -0.38566301 4.3450998e-19)
(1.130275 -0.38539477 1.5549092e-19)
(1.1509433 -0.38335827 -2.7138851e-19)
(1.1716492 -0.3794889 1.2772598e-19)
(1.1921466 -0.37375502 3.4186524e-19)
(1.2121869 -0.36617216 -6.6268206e-21)
(1.2315221 -0.35678826 -2.2591611e-19)
(1.2498785 -0.34570294 -5.9113917e-19)
(1.2670291 -0.33304909 4.3224552e-19)
(1.282749 -0.3190124 -3.5131406e-19)
(1.2968438 -0.30378419 -5.876898e-21)
(1.3091145 -0.2875811 6.2870126e-20)
(1.3194268 -0.27060625 3.2458484e-19)
(1.3276655 -0.25308638 2.2111433e-19)
(1.3337783 -0.23526388 -3.8139777e-20)
(1.3378745 -0.21730321 0)
(1.3396804 -0.19932066 -5.3647901e-21)
(1.3393556 -0.18154523 -2.4225492e-19)
(1.3375051 -0.16410298 -2.3066415e-19)
(1.333895 -0.14712344 -2.18677e-19)
(1.3286702 -0.13056898 -4.5839132e-21)
(1.3219321 -0.11443443 -1.7432482e-20)
(1.3137776 -0.098703025 -3.5828495e-19)
(1.3043039 -0.083342998 -3.3495202e-19)
(1.2935989 -0.068307579 -3.2426769e-19)
(1.2817383 -0.053537426 -3.3235607e-21)
(1.2687755 -0.038965347 5.9563793e-19)
(1.2547692 -0.024531002 -2.6553105e-20)
(1.2397531 -0.010170393 -8.2742195e-21)
(1.2237495 0.0041714268 4.1419768e-20)
(1.2067673 0.01853864 -2.5627258e-19)
(1.188804 0.032963885 -5.0020809e-19)
(1.1698298 0.047463031 7.0133704e-21)
(1.1498235 0.062030976 -2.0410889e-19)
(1.1287682 0.076655914 2.8532238e-19)
(1.106565 0.091290159 0)
(1.0827803 0.10562854 2.8443025e-19)
(1.0611376 0.12409596 3.0881921e-19)
(0.93414361 -0.28090802 2.3367764e-19)
(0.94350856 -0.29232087 -2.8759742e-19)
(0.95334044 -0.30290645 -1.9047495e-19)
(0.96362896 -0.31270852 1.4650723e-19)
(0.97502035 -0.322227 2.8192477e-19)
(0.98758944 -0.33137959 -2.8080808e-19)
(1.0012434 -0.33994131 1.0453545e-19)
(1.0159404 -0.34775204 1.5160904e-19)
(1.0316695 -0.35467538 2.9213762e-19)
(1.0483858 -0.36056612 -4.5906458e-19)
(1.0660123 -0.36527009 -7.7112331e-19)
(1.084442 -0.36863641 -2.5544642e-19)
(1.1035414 -0.37052608 8.5054476e-22)
(1.1231505 -0.37081453 2.9977882e-19)
(1.1430792 -0.36940104 1.6600734e-19)
(1.1631141 -0.36620906 0)
(1.1830247 -0.36119819 1.0275878e-18)
(1.2025659 -0.35437323 -1.0026873e-19)